ITEM: TIMESTEP
0
ITEM: NUMBER OF ATOMS
50
ITEM: BOX BOUNDS pp pp pp
-5.0000000000000000e+01 5.0000000000000000e+01
-5.0000000000000000e+01 5.0000000000000000e+01
-5.0000000000000000e+01 5.0000000000000000e+01
ITEM: ATOMS id type x y z
1 1 -2.30077 0 0
2 1 -1.30403 0 0
3 1 -0.310525 0 0
4 1 0.682661 0 0
5 1 1.67629 0 0
6 1 2.67004 0 0
7 1 3.66319 0 0
8 1 4.65674 0 0
9 1 5.65047 0 0
10 1 6.64423 0 0
11 1 7.6377 0 0
12 1 8.631 0 0
13 1 9.62461 0 0
14 1 10.6183 0 0
15 1 11.6127 0 0
16 1 12.607 0 0
17 1 13.6012 0 0
18 1 14.5952 0 0
19 1 15.5893 0 0
20 1 16.5832 0 0
21 1 17.577 0 0
22 1 18.5712 0 0
23 1 19.5651 0 0
24 1 20.5588 0 0
25 1 21.5528 0 0
26 1 22.5472 0 0
27 1 23.5412 0 0
28 1 24.5349 0 0
29 1 25.5288 0 0
30 1 26.523 0 0
31 1 27.5168 0 0
32 1 28.5107 0 0
33 1 29.5048 0 0
34 1 30.4988 0 0
35 1 31.493 0 0
36 1 32.4873 0 0
37 1 33.4817 0 0
38 1 34.4754 0 0
39 1 35.469 0 0
40 1 36.4623 0 0
41 1 37.4558 0 0
42 1 38.4495 0 0
43 1 39.4433 0 0
44 1 40.4368 0 0
45 1 41.43 0 0
46 1 42.4237 0 0
47 1 43.4173 0 0
48 1 44.4105 0 0
49 1 45.404 0 0
50 1 46.4008 0 0
ITEM: TIMESTEP
1000
ITEM: NUMBER OF ATOMS
50
ITEM: BOX BOUNDS pp pp pp
-5.0000000000000000e+01 5.0000000000000000e+01
-5.0000000000000000e+01 5.0000000000000000e+01
-5.0000000000000000e+01 5.0000000000000000e+01
ITEM: ATOMS id type x y z
1 1 8.8089 0.533043 0.73454
2 1 9.09092 1.51329 0.341918
3 1 9.53813 1.10323 -0.532413
4 1 9.81492 0.49886 0.271811
5 1 10.2408 1.26257 0.649687
6 1 10.8137 0.499471 0.731236
7 1 10.8373 -0.134501 0.12326
8 1 10.5837 0.578282 -0.627329
9 1 11.551 0.519342 -0.997067
10 1 11.5678 0.912968 0.0641415
11 1 12.1763 0.196235 -0.0534245
12 1 12.354 -0.655577 -0.435601
13 1 13.0228 -0.488933 -0.986303
14 1 13.1482 -0.111088 -0.0590041
15 1 13.4688 -0.931127 0.0852563
16 1 13.9817 -0.381549 -0.630455
17 1 14.988 -0.195342 -0.694955
18 1 15.9428 -0.0503659 -0.403916
19 1 16.8119 -0.140086 -0.599273
20 1 17.6436 -0.558936 -0.269825
21 1 18.4598 -1.10658 -0.34863
22 1 18.7943 -0.27051 -0.00729167
23 1 19.4786 -0.90192 0.0720283
24 1 20.3797 -0.960302 0.304643
25 1 20.7825 -1.09024 -0.543456
26 1 21.448 -1.29185 0.0813864
27 1 22.3888 -1.02361 -0.0772736
28 1 23.3109 -0.982614 -0.489357
29 1 24.1614 -1.29583 -0.913653
30 1 25.0097 -0.990571 -1.22832
31 1 25.9763 -0.992377 -1.11847
32 1 26.9513 -0.664371 -1.07518
33 1 27.9164 -0.564598 -1.16333
34 1 29.0075 -0.356441 -1.13424
35 1 29.9366 -0.0572235 -0.702995
36 1 30.9434 -0.239779 -0.522443
37 1 31.0546 0.318839 0.293064
38 1 31.8785 0.789154 -0.0040619
39 1 32.6429 0.803896 0.594542
40 1 32.5423 0.0452696 1.07483
41 1 33.4515 0.149306 0.796337
42 1 33.6113 1.23096 1.07655
43 1 33.5353 1.44677 0.0302974
44 1 34.3086 0.741088 0.109065
45 1 35.1398 0.32789 0.231643
46 1 34.3032 -0.28409 0.430586
47 1 34.5326 0.441431 1.11965
48 1 35.1007 1.06684 1.60568
49 1 34.3097 1.03036 1.92049
50 1 34.7584 0.711325 2.87561
ITEM: TIMESTEP
2000
ITEM: NUMBER OF ATOMS
50
ITEM: BOX BOUNDS pp pp pp
-5.0000000000000000e+01 5.0000000000000000e+01
-5.0000000000000000e+01 5.0000000000000000e+01
-5.0000000000000000e+01 5.0000000000000000e+01
ITEM: ATOMS id type x y z
1 1 22.1069 -0.0698382 -0.33078
2 1 21.5929 0.592078 -0.365932
3 1 21.0506 -0.0689763 0.005865
4 1 20.9811 0.447423 1.0109
5 1 20.4197 -0.346411 1.02045
6 1 19.7513 -0.109807 0.76328
7 1 19.4694 0.719275 0.421815
8 1 20.2125 0.89234 -0.251542
9 1 20.6288 1.2837 -0.878491
10 1 20.6447 0.771754 -1.17758
11 1 20.0433 -0.215391 -1.16289
12 1 19.8448 -0.69065 -0.610228
13 1 19.3394 -1.36704 -0.333572
14 1 20.3158 -1.52391 0.468473
15 1 21.4119 -1.21743 0.430156
16 1 20.9212 -1.39918 -0.495268
17 1 21.928 -1.79984 -0.806522
18 1 21.8577 -0.898934 -1.08763
19 1 21.1752 -0.351942 -1.41648
20 1 21.9688 0.192349 -1.61959
21 1 22.2416 1.07945 -1.73894
22 1 21.6471 1.52981 -1.01673
23 1 22.3669 1.80346 -0.747928
24 1 22.6723 0.973261 -0.599523
25 1 22.8707 0.402673 -1.29055
26 1 23.904 0.156776 -1.22673
27 1 24.5337 -0.0580509 -1.28426
28 1 23.9955 -1.08367 -1.19551
29 1 24.0687 -0.682351 -0.317837
30 1 23.0486 -0.795761 -0.761088
31 1 22.3851 -1.0394 -0.174478
32 1 22.706 -1.64206 0.215174
33 1 23.5665 -1.59582 -0.289195
34 1 23.7674 -1.22152 0.729525
35 1 23.2491 -0.680899 0.303272
36 1 22.4137 -1.01192 0.95359
37 1 22.9448 -0.512139 1.62266
38 1 23.7133 -0.184835 1.22262
39 1 24.3598 0.13484 0.569303
40 1 23.687 0.183335 0.0263369
41 1 22.8057 0.539446 0.308903
42 1 23.6639 1.12269 0.84527
43 1 22.8277 0.885164 1.30986
44 1 22.8061 1.7002 1.12851
45 1 22.3257 1.08638 2.18136
46 1 22.0002 -0.0377525 1.6023
47 1 21.8581 -0.116221 0.760892
48 1 21.8808 0.903603 1.27029
49 1 21.4043 1.49173 0.39403
50 1 21.1215 1.83001 1.61447
ITEM: TIMESTEP
3000
ITEM: NUMBER OF ATOMS
50
ITEM: BOX BOUNDS pp pp pp
-5.0000000000000000e+01 5.0000000000000000e+01
-5.0000000000000000e+01 5.0000000000000000e+01
-5.0000000000000000e+01 5.0000000000000000e+01
ITEM: ATOMS id type x y z
1 1 23.9792 0.276965 -0.844179
2 1 23.2923 0.839011 -0.407819
3 1 23.2313 1.73671 -0.788198
4 1 23.0281 0.837658 -1.4315
5 1 22.8102 0.21879 -2.13614
6 1 23.4851 -0.319812 -1.66279
7 1 22.9808 -0.208869 -0.982055
8 1 22.345 0.478255 -0.703028
9 1 21.8896 0.973342 -1.52725
10 1 21.4217 -0.101342 -1.45295
11 1 21.8619 -0.903507 -2.13893
12 1 22.2426 -1.79018 -1.80543
13 1 22.6023 -1.22531 -1.33543
14 1 23.0572 -1.35436 -0.37514
15 1 23.753 -0.736265 -0.232575
16 1 24.801 -1.16588 0.0455361
17 1 24.8555 -0.526042 -0.545081
18 1 24.6776 0.118661 0.420298
19 1 23.8702 -0.239122 1.24864
20 1 23.6568 0.209222 0.420967
21 1 24.2727 0.765137 1.23364
22 1 23.5776 0.502657 1.7778
23 1 22.9359 0.336715 1.03484
24 1 22.3337 0.324254 0.320077
25 1 22.2529 1.24316 0.603368
26 1 22.6539 1.28227 1.6672
27 1 22.4749 0.384725 2.02394
28 1 21.9353 -0.0209476 1.41603
29 1 22.6918 -0.662866 1.6208
30 1 23.1739 -0.964097 0.666063
31 1 22.3026 -0.707628 0.27467
32 1 21.9641 -1.58405 0.461338
33 1 21.7436 -1.23488 -0.378945
34 1 21.2886 -0.64414 0.44353
35 1 20.9548 -1.62147 0.674568
36 1 20.5527 -1.01385 -0.195124
37 1 20.7711 -0.0143489 -0.198891
38 1 20.3167 -0.154635 0.636687
39 1 20.0433 -0.220766 1.67235
40 1 20.8919 0.437851 1.5683
41 1 21.3478 0.530773 0.653045
42 1 20.6132 0.915994 0.237937
43 1 19.7874 1.47983 0.358067
44 1 19.9327 0.730599 1.0897
45 1 19.1466 0.367433 0.886264
46 1 19.6862 0.0673238 -0.0549116
47 1 20.0868 -0.317568 -1.19413
48 1 20.3053 0.789608 -1.10464
49 1 19.5813 1.04359 -0.586368
50 1 19.0391 0.84139 -1.37414
ITEM: TIMESTEP
4000
ITEM: NUMBER OF ATOMS
50
ITEM: BOX BOUNDS pp pp pp
-5.0000000000000000e+01 5.0000000000000000e+01
-5.0000000000000000e+01 5.0000000000000000e+01
-5.0000000000000000e+01 5.0000000000000000e+01
ITEM: ATOMS id type x y z
1 1 23.6945 0.203007 2.45428
2 1 22.9618 0.0589699 1.67417
3 1 23.4514 0.86812 1.49553
4 1 22.5119 1.25445 1.5732
5 1 21.6932 1.64691 1.61821
6 1 21.6694 1.93859 0.472813
7 1 21.8272 0.942378 0.668364
8 1 22.5168 0.824156 0.0553606
9 1 22.7497 0.0523155 -0.187086
10 1 23.8017 0.00790062 -0.0477442
11 1 23.6152 -0.743727 0.650288
12 1 23.4559 -1.77833 0.273355
13 1 22.8721 -1.54916 -0.223768
14 1 22.2725 -1.45821 0.490864
15 1 22.664 -2.28948 0.839616
16 1 22.6212 -1.31658 1.40581
17 1 22.1013 -0.483507 1.41763
18 1 22.4437 -0.0719999 2.49761
19 1 21.9032 0.423889 1.71678
20 1 21.1369 -0.0269261 1.06446
21 1 20.4327 -0.180042 0.85787
22 1 20.1115 0.806562 0.863285
23 1 20.833 1.33165 0.871723
24 1 20.6703 1.25464 -0.181776
25 1 20.9232 0.496286 0.161779
26 1 19.937 0.544483 -0.0705551
27 1 20.8009 -0.289336 -0.492588
28 1 21.0404 0.185242 -1.10245
29 1 21.9228 0.174196 -0.854506
30 1 21.8327 -0.343916 0.263297
31 1 20.9243 -0.976289 0.320365
32 1 21.3104 -1.32169 1.11502
33 1 21.5277 -2.1289 0.533454
34 1 20.7707 -1.99586 0.366551
35 1 21.3411 -1.37292 -0.510956
36 1 22.2678 -0.895007 -0.722204
37 1 22.0436 -1.61599 -1.23037
38 1 22.9829 -1.02663 -1.42847
39 1 22.7248 -0.260594 -1.80514
40 1 21.6468 -0.522997 -1.54976
41 1 21.0525 -0.3254 -2.20577
42 1 20.1363 -0.141106 -1.98272
43 1 20.4538 0.983081 -2.30468
44 1 20.9564 1.49566 -1.67469
45 1 21.9367 1.40182 -0.833448
46 1 22.7309 0.855671 -1.01464
47 1 23.8081 0.700063 -0.843289
48 1 24.15 0.979957 -1.86435
49 1 24.8214 1.30208 -1.38221
50 1 24.4457 2.38252 -1.20851
ITEM: TIMESTEP
5000
ITEM: NUMBER OF ATOMS
50
ITEM: BOX BOUNDS pp pp pp
-5.0000000000000000e+01 5.0000000000000000e+01
-5.0000000000000000e+01 5.0000000000000000e+01
-5.0000000000000000e+01 5.0000000000000000e+01
ITEM: ATOMS id type x y z
1 1 20.3875 1.70195 0.977012
2 1 21.277 1.47569 0.353297
3 1 20.4887 1.47632 -0.0895077
4 1 20.5212 0.457196 0.120576
5 1 20.9224 0.414398 0.966843
6 1 21.4038 1.0529 1.67898
7 1 22.3422 0.861108 1.67561
8 1 22.0416 0.130702 1.15519
9 1 21.7303 -0.577364 0.680371
10 1 21.8569 -0.895926 1.62221
11 1 21.1695 -0.383046 2.10325
12 1 20.7624 -0.605289 1.04542
13 1 20.8799 -0.611612 -0.00658367
14 1 20.705 -1.40117 -0.54051
15 1 19.4268 -1.70021 -0.775473
16 1 19.8273 -0.922604 -0.591202
17 1 19.824 -0.493745 0.0798056
18 1 18.9355 -0.352982 0.132076
19 1 19.3178 0.317753 -0.551532
20 1 20.1177 -0.0403996 -1.08754
21 1 20.2041 0.956041 -1.43634
22 1 21.0967 1.30351 -1.37191
23 1 21.3456 0.324381 -1.48595
24 1 22.2552 0.391852 -1.34653
25 1 22.635 1.32013 -1.55483
26 1 23.3484 1.06914 -0.956614
27 1 22.5698 0.916417 -0.513355
28 1 21.5882 0.476028 -0.00104887
29 1 21.783 -0.283436 -0.6591
30 1 22.5971 -0.366013 -0.27607
31 1 22.4939 -1.25242 -0.557042
32 1 21.7806 -1.70095 -0.637438
33 1 21.935 -1.53812 0.373333
34 1 22.1806 -1.97102 1.24405
35 1 23.114 -1.43982 1.08825
36 1 23.1843 -1.16894 0.317347
37 1 23.5303 -0.759488 -0.712476
38 1 24.2263 -0.45474 -0.247422
39 1 24.6891 -0.606011 -1.19077
40 1 23.7682 -0.111303 -1.43259
41 1 23.809 0.685385 -1.87402
42 1 24.2757 0.572574 -0.82175
43 1 23.509 0.336642 -0.296869
44 1 23.1551 0.670715 0.668039
45 1 23.3223 1.44951 0.281874
46 1 24.1898 1.48061 0.460538
47 1 24.3187 0.456495 0.335978
48 1 24.598 -0.365245 1.24807
49 1 23.8118 -0.0338881 1.61083
50 1 23.2478 -0.261721 0.795517
ITEM: TIMESTEP
6000
ITEM: NUMBER OF ATOMS
50
ITEM: BOX BOUNDS pp pp pp
-5.0000000000000000e+01 5.0000000000000000e+01
-5.0000000000000000e+01 5.0000000000000000e+01
-5.0000000000000000e+01 5.0000000000000000e+01
ITEM: ATOMS id type x y z
1 1 21.4647 1.87196 -0.45126
2 1 20.5673 1.03294 -0.887279
3 1 20.175 0.106822 -1.07225
4 1 19.415 -0.0709762 -0.679955
5 1 19.8764 -0.856198 -0.857661
6 1 20.6005 -0.934034 -0.474477
7 1 20.8806 -0.152677 0.129952
8 1 21.1329 -0.575493 0.759164
9 1 22.0287 -0.135794 0.360921
10 1 22.3587 -0.769968 -0.124362
11 1 22.1018 -0.600137 -1.00785
12 1 21.2334 0.0598282 -0.815546
13 1 21.496 0.57255 -0.279701
14 1 22.138 0.480252 -0.894072
15 1 22.147 1.24765 -1.21628
16 1 21.8036 0.911682 -2.01542
17 1 20.9251 0.328255 -1.98935
18 1 21.6377 -0.317951 -2.23942
19 1 22.171 -0.59748 -2.99956
20 1 22.9091 -0.821478 -2.86116
21 1 22.8147 0.259307 -2.37393
22 1 23.6311 -0.026399 -1.8663
23 1 24.1923 0.361859 -1.5185
24 1 24.7192 0.257715 -0.57286
25 1 23.8854 0.940936 -0.474368
26 1 23.2166 0.974635 -1.13569
27 1 23.3494 -0.0966431 -0.874504
28 1 23.0635 0.550742 0.0656418
29 1 23.7081 0.114719 0.171623
30 1 22.9614 0.0995794 1.00739
31 1 23.7461 -0.701359 0.951926
32 1 23.7343 -0.815366 1.853
33 1 22.9027 -1.18526 1.60372
34 1 22.6277 -0.987335 0.940754
35 1 21.7545 -1.28642 0.580944
36 1 21.7628 -2.22351 0.895654
37 1 21.2298 -1.71596 1.50443
38 1 20.9178 -0.981313 1.88107
39 1 21.8908 -0.469762 1.41946
40 1 22.037 -1.12139 2.11481
41 1 22.966 -0.633999 2.67105
42 1 22.9131 0.199766 2.06312
43 1 23.0885 1.05446 1.69952
44 1 22.2462 1.1648 1.48704
45 1 22.1094 0.879814 0.524076
46 1 21.2251 0.432388 1.12685
47 1 20.6608 0.823494 1.94185
48 1 21.0273 1.44328 1.36128
49 1 20.8577 1.36768 0.375676
50 1 20.1984 0.539788 0.190852
ITEM: TIMESTEP
7000
ITEM: NUMBER OF ATOMS
50
ITEM: BOX BOUNDS pp pp pp
-5.0000000000000000e+01 5.0000000000000000e+01
-5.0000000000000000e+01 5.0000000000000000e+01
-5.0000000000000000e+01 5.0000000000000000e+01
ITEM: ATOMS id type x y z
1 1 23.7281 1.00802 -1.50371
2 1 24.4041 0.395149 -1.56038
3 1 23.7923 0.372354 -2.51469
4 1 22.8518 0.518195 -1.99766
5 1 23.4684 -0.388882 -1.49667
6 1 23.1332 -1.01571 -0.623562
7 1 22.5591 -1.08778 -1.30489
8 1 21.497 -1.21398 -1.50704
9 1 20.9707 -0.648307 -0.936978
10 1 21.9623 -0.373085 -0.974139
11 1 21.4815 0.793125 -1.36812
12 1 22.4597 0.867549 -1.00658
13 1 23.1355 1.69229 -0.55143
14 1 22.1051 1.75568 -0.180526
15 1 22.7035 0.907985 0.0555383
16 1 23.7291 1.2707 0.261579
17 1 23.4861 0.234235 -0.404039
18 1 24.4088 0.694166 -0.439016
19 1 24.4139 0.481751 0.629667
20 1 23.8709 -0.367817 0.435592
21 1 23.1449 -0.87476 0.555391
22 1 23.1053 -0.931549 1.34113
23 1 22.5493 -0.080299 1.66959
24 1 22.827 0.746361 1.85182
25 1 23.6205 1.13223 2.34142
26 1 23.7664 1.19491 1.4063
27 1 23.8588 0.18288 1.37332
28 1 23.163 0.412674 0.777238
29 1 22.509 -0.0880032 0.0630652
30 1 22.0154 0.690671 0.836336
31 1 21.5515 0.566891 -0.0296131
32 1 20.9796 0.671441 -0.462736
33 1 20.843 -0.112556 0.438554
34 1 21.6066 -0.506322 0.688277
35 1 22.0634 -1.25564 0.726394
36 1 21.9515 -0.985911 -0.145724
37 1 21.47 -1.79309 -0.0908973
38 1 20.3639 -2.04666 0.0637717
39 1 20.8787 -1.86672 0.697111
40 1 20.4409 -1.04858 0.0110917
41 1 19.7252 -0.553619 0.581303
42 1 20.4769 -0.91768 1.35101
43 1 19.9568 -0.365793 1.71233
44 1 19.8338 0.605868 1.57185
45 1 20.4429 0.776688 0.760394
46 1 19.7264 1.19618 0.179775
47 1 19.9076 0.629379 -0.662321
48 1 20.1044 -0.0919976 -0.510754
49 1 19.3565 -0.602476 -0.655877
50 1 20.0998 -0.58014 -1.45251
ITEM: TIMESTEP
8000
ITEM: NUMBER OF ATOMS
50
ITEM: BOX BOUNDS pp pp pp
-5.0000000000000000e+01 5.0000000000000000e+01
-5.0000000000000000e+01 5.0000000000000000e+01
-5.0000000000000000e+01 5.0000000000000000e+01
ITEM: ATOMS id type x y z
1 1 24.9208 -0.170981 0.6772
2 1 24.8943 -0.837291 1.46808
3 1 23.9721 -1.32499 1.40589
4 1 23.8806 -0.444086 0.894946
5 1 23.106 -1.18095 0.614687
6 1 22.8645 -0.904488 -0.222606
7 1 23.019 -0.150026 0.458781
8 1 23.4836 -0.100223 -0.540197
9 1 23.0886 0.753332 -0.196052
10 1 23.7276 0.848825 0.147824
11 1 23.5514 1.76204 0.855905
12 1 22.6754 1.09523 0.757659
13 1 22.0393 1.77541 0.5637
14 1 21.5139 1.0893 1.08546
15 1 20.7633 1.34072 1.38962
16 1 21.1697 0.542679 1.87429
17 1 20.4157 -0.147857 2.03017
18 1 20.8152 -1.07886 1.8065
19 1 21.584 -0.427456 1.94946
20 1 21.0619 -0.231525 1.11016
21 1 21.9508 0.190428 0.766008
22 1 22.4727 -0.358958 1.42824
23 1 21.6786 -1.05739 1.06967
24 1 21.9924 -0.868334 0.304748
25 1 21.1714 -0.366507 0.038183
26 1 20.538 0.0403632 -0.311259
27 1 20.4431 0.189028 -1.1034
28 1 20.8185 0.993202 -1.65217
29 1 21.2614 0.950666 -0.981237
30 1 21.1856 1.21716 -0.172637
31 1 21.9243 0.826412 -0.0900401
32 1 21.7873 0.0150036 -0.705623
33 1 22.4772 -0.341382 -1.11661
34 1 21.8109 -1.00501 -0.699884
35 1 21.2655 -1.79701 -0.00324936
36 1 21.2222 -2.38198 0.625361
37 1 20.1217 -2.15476 0.507652
38 1 20.4409 -1.16323 0.443286
39 1 19.7102 -0.51758 -0.168612
40 1 20.5336 -0.919205 -0.544092
41 1 20.3527 -0.965265 -1.37487
42 1 21.2742 -0.594734 -1.97078
43 1 21.6748 0.229519 -1.84568
44 1 22.3111 0.833083 -1.33482
45 1 22.4724 2.09282 -1.5807
46 1 23.1045 2.10441 -1.44151
47 1 23.2916 1.38044 -1.03758
48 1 24.1272 1.00805 -1.40137
49 1 23.3546 0.463193 -1.51755
50 1 23.1834 -0.251243 -2.26094
ITEM: TIMESTEP
9000
ITEM: NUMBER OF ATOMS
50
ITEM: BOX BOUNDS pp pp pp
-5.0000000000000000e+01 5.0000000000000000e+01
-5.0000000000000000e+01 5.0000000000000000e+01
-5.0000000000000000e+01 5.0000000000000000e+01
ITEM: ATOMS id type x y z
1 1 23.346 -0.254224 0.899674
2 1 22.3824 -0.243789 1.55796
3 1 21.4086 -0.545722 1.58988
4 1 20.8791 -0.827314 0.819594
5 1 20.6651 0.172848 0.965348
6 1 21.1725 0.624869 1.68708
7 1 21.519 1.03612 2.03075
8 1 22.5944 1.29044 1.83926
9 1 22.1165 1.03002 1.03182
10 1 23.0693 0.918424 0.788347
11 1 22.3498 1.88804 0.345689
12 1 21.5084 2.47367 0.736288
13 1 21.3473 1.93374 -0.138894
14 1 20.531 1.96458 -0.10076
15 1 20.3195 1.38426 -0.786908
16 1 21.1178 1.5802 -1.07701
17 1 21.0417 1.77726 -1.97289
18 1 20.4716 0.930642 -1.78073
19 1 21.0174 0.214944 -1.26094
20 1 20.5706 -0.710646 -1.07445
21 1 20.5509 -1.60288 -1.26384
22 1 20.2668 -2.33917 -0.736253
23 1 20.4123 -2.10517 0.0704413
24 1 20.747 -1.32114 -0.275399
25 1 20.3163 -0.390012 -0.131504
26 1 20.8787 0.158504 -0.237185
27 1 21.5927 -0.47525 -0.30673
28 1 22.475 0.144901 0.0466458
29 1 22.7818 0.38144 -0.852783
30 1 21.9366 0.896989 -0.144089
31 1 21.1459 1.05057 0.41381
32 1 21.7201 0.174869 0.88593
33 1 22.0013 -0.762666 0.689208
34 1 21.5568 -1.57735 1.40263
35 1 21.3562 -1.82131 0.421244
36 1 21.9076 -1.78451 -0.249318
37 1 21.592 -1.73799 -0.812037
38 1 21.6226 -1.25812 -1.18238
39 1 22.5732 -1.065 -1.00419
40 1 22.5838 -0.994594 -0.185447
41 1 23.691 -1.3366 -0.163127
42 1 24.4304 -1.18212 -0.750411
43 1 25.4196 -1.00756 -1.09319
44 1 25.357 -0.535479 -0.237125
45 1 24.276 -0.510357 0.207326
46 1 24.0976 0.173919 -0.708374
47 1 23.5882 0.313182 -0.0334267
48 1 24.2906 0.583571 0.315681
49 1 24.1047 1.70899 0.342466
50 1 23.7991 1.58198 -0.527682
ITEM: TIMESTEP
10000
ITEM: NUMBER OF ATOMS
50
ITEM: BOX BOUNDS pp pp pp
-5.0000000000000000e+01 5.0000000000000000e+01
-5.0000000000000000e+01 5.0000000000000000e+01
-5.0000000000000000e+01 5.0000000000000000e+01
ITEM: ATOMS id type x y z
1 1 19.8953 0.372308 0.897102
2 1 20.4129 -0.39323 0.203815
3 1 20.273 -0.165903 -0.509729
4 1 20.7479 -1.11986 -0.589233
5 1 21.5032 -0.766393 -0.682843
6 1 21.3094 0.0912852 -0.67814
7 1 21.5731 0.974841 -0.96585
8 1 20.96 1.62644 -0.422214
9 1 19.976 1.48453 -0.012732
10 1 20.6936 0.670438 -0.0106621
11 1 21.0556 0.729449 0.64569
12 1 21.7186 0.798316 0.0557364
13 1 21.9312 1.83044 0.0787819
14 1 22.6452 1.20842 -0.523456
15 1 23.2538 0.532854 -1.0843
16 1 22.9278 1.32302 -1.48383
17 1 22.341 1.18318 -2.44044
18 1 23.0852 0.419527 -2.38127
19 1 22.775 -0.259094 -2.167
20 1 22.6201 -0.59828 -1.36014
21 1 22.0831 -1.24715 -2.03224
22 1 22.4526 -1.52694 -2.56549
23 1 22.1327 -0.4496 -3.02718
24 1 21.3417 -0.160944 -2.55543
25 1 21.3654 0.60909 -2.00949
26 1 22.2512 0.497174 -1.59332
27 1 22.5345 0.0858874 -0.593424
28 1 23.2428 -0.328005 -0.490579
29 1 24.2706 -0.0207681 0.0606874
30 1 23.5583 1.03067 0.285227
31 1 22.6794 0.212247 0.425127
32 1 21.8848 0.239877 1.01591
33 1 21.5705 -0.263162 0.336395
34 1 22.2012 -0.998302 0.300613
35 1 23.1154 -1.08185 0.31031
36 1 22.9428 -0.516034 1.11361
37 1 23.8742 -0.253495 1.05367
38 1 24.3457 -0.195443 1.55131
39 1 23.4424 -0.31252 2.13303
40 1 23.5388 0.608304 1.63928
41 1 22.7322 0.399859 1.56143
42 1 22.4093 0.0913952 2.43186
43 1 22.3988 -0.944637 1.942
44 1 21.9282 -0.715696 2.94365
45 1 21.5129 -0.432274 2.01568
46 1 21.2599 -1.12655 2.2614
47 1 21.5612 -1.4372 1.33194
48 1 20.6966 -1.31001 0.631532
49 1 20.6703 -0.651213 1.39697
50 1 20.8045 0.255005 1.55625
ITEM: TIMESTEP
11000
ITEM: NUMBER OF ATOMS
50
ITEM: BOX BOUNDS pp pp pp
-5.0000000000000000e+01 5.0000000000000000e+01
-5.0000000000000000e+01 5.0000000000000000e+01
-5.0000000000000000e+01 5.0000000000000000e+01
ITEM: ATOMS id type x y z
1 1 21.3053 2.61643 -1.42942
2 1 21.1681 1.51662 -1.65475
3 1 20.9534 0.910334 -1.06042
4 1 20.3695 -0.100807 -0.874599
5 1 21.2983 -0.148052 -0.818307
6 1 20.9817 -0.575307 -1.75102
7 1 21.5302 -1.44609 -1.48673
8 1 22.1101 -1.16279 -0.60249
9 1 23.086 -1.06348 -0.985589
10 1 22.1005 -0.41237 -1.40766
11 1 22.0498 0.77741 -1.03215
12 1 21.7232 0.600153 -0.124165
13 1 21.7572 1.17903 0.736963
14 1 22.4746 1.31804 0.299842
15 1 22.8794 0.917001 -0.340701
16 1 23.7879 1.16987 -1.12923
17 1 23.6023 1.8695 -0.408191
18 1 24.5897 1.6908 -0.287652
19 1 24.0432 1.85398 0.782375
20 1 23.9935 0.954838 0.0967861
21 1 23.8759 0.152401 1.01245
22 1 24.1612 -0.436882 0.392953
23 1 24.8573 0.164807 0.471506
24 1 24.9656 0.617733 -0.294837
25 1 24.5211 0.255552 -1.12942
26 1 23.4804 0.0491202 -0.450517
27 1 22.9702 0.459439 0.56048
28 1 22.5779 0.681506 1.40938
29 1 21.8177 0.67601 1.68269
30 1 21.1947 0.131765 1.18797
31 1 22.0417 -0.0756957 0.864628
32 1 22.334 -0.22381 0.0434467
33 1 22.9082 -0.77537 0.139533
34 1 22.9654 -0.694777 1.04153
35 1 22.6385 -0.631866 1.93276
36 1 21.8341 -1.03264 1.53778
37 1 21.5708 -0.256673 2.21255
38 1 20.6101 -0.558559 2.13839
39 1 20.8188 -1.08598 1.39517
40 1 20.2903 -0.265583 1.21135
41 1 20.1251 -0.476285 0.329637
42 1 20.4894 0.533406 0.563924
43 1 21.1905 -0.417138 0.168291
44 1 21.4298 -1.32539 0.426287
45 1 21.117 -2.30471 0.0340521
46 1 20.3969 -1.82249 -0.378282
47 1 20.5332 -1.00783 -0.431635
48 1 20.0171 -1.15359 -1.25792
49 1 19.4195 -1.37618 -1.7993
50 1 19.5437 -0.265402 -1.53773
ITEM: TIMESTEP
12000
ITEM: NUMBER OF ATOMS
50
ITEM: BOX BOUNDS pp pp pp
-5.0000000000000000e+01 5.0000000000000000e+01
-5.0000000000000000e+01 5.0000000000000000e+01
-5.0000000000000000e+01 5.0000000000000000e+01
ITEM: ATOMS id type x y z
1 1 22.7814 -0.118213 -1.08007
2 1 23.6285 -0.309942 -1.58982
3 1 23.1746 -1.22952 -1.19558
4 1 22.8269 -1.75359 -0.673248
5 1 23.1001 -0.93277 -0.201892
6 1 23.2628 -0.194271 -0.124714
7 1 24.2144 -0.549653 -0.594633
8 1 24.5511 -0.0329758 -1.08304
9 1 24.458 0.900103 -1.01701
10 1 23.627 0.836991 -1.69652
11 1 23.5833 0.825391 -0.430485
12 1 23.4752 1.76153 -1.08571
13 1 22.5077 2.24482 -1.26708
14 1 22.3826 1.58261 -0.609423
15 1 22.5452 0.790291 -0.0736458
16 1 23.209 0.781931 0.821754
17 1 23.1402 1.42875 1.67891
18 1 22.0128 1.31213 1.35154
19 1 22.2946 0.381087 1.91776
20 1 22.8011 0.739666 2.67871
21 1 22.0253 1.18583 2.60285
22 1 21.1356 1.57104 1.92795
23 1 20.9887 1.03246 2.70976
24 1 20.6753 0.178617 2.74232
25 1 21.1337 -0.392382 1.80826
26 1 21.2546 0.487685 1.75897
27 1 20.5834 0.446304 1.23295
28 1 20.2568 -0.415289 1.0138
29 1 20.9809 -0.316874 0.602655
30 1 21.7678 0.23001 0.962139
31 1 22.3989 -0.330988 0.629984
32 1 22.5945 -1.04733 1.23691
33 1 22.5257 -1.45467 0.504046
34 1 21.7322 -1.17146 -0.102335
35 1 21.2173 -2.03015 -0.845983
36 1 20.6494 -1.79582 -0.166955
37 1 20.6497 -1.38904 0.440595
38 1 19.9188 -1.04509 0.142193
39 1 19.8314 -0.0558266 0.00422311
40 1 20.7747 -0.198714 -0.419003
41 1 20.5332 0.527675 -0.90768
42 1 21.1265 1.19346 -1.34697
43 1 21.9764 0.592355 -1.0509
44 1 21.786 -0.13498 -0.459484
45 1 21.5781 -0.210651 -1.3788
46 1 21.9334 -1.28909 -1.13264
47 1 21.3089 -1.7873 -1.8277
48 1 21.152 -0.927554 -1.98123
49 1 21.9998 -0.451962 -2.40304
50 1 22.4349 0.535356 -2.02271
ITEM: TIMESTEP
13000
ITEM: NUMBER OF ATOMS
50
ITEM: BOX BOUNDS pp pp pp
-5.0000000000000000e+01 5.0000000000000000e+01
-5.0000000000000000e+01 5.0000000000000000e+01
-5.0000000000000000e+01 5.0000000000000000e+01
ITEM: ATOMS id type x y z
1 1 24.5623 -0.239829 0.41428
2 1 24.2913 -0.862718 0.91427
3 1 23.459 -0.442334 1.22945
4 1 23.5969 -0.054813 0.246584
5 1 22.5517 -0.306507 0.629841
6 1 22.5071 -0.013186 1.26952
7 1 21.568 -0.229359 1.52227
8 1 21.8451 0.783577 1.67418
9 1 22.7274 0.987555 2.04562
10 1 23.5753 0.421387 2.62992
11 1 23.9274 1.16414 1.96455
12 1 24.4432 0.793204 1.30329
13 1 23.3263 0.57172 1.16486
14 1 22.6501 0.893691 0.786664
15 1 21.9141 1.25479 0.558549
16 1 21.0327 1.76644 -0.0291019
17 1 20.7893 1.3773 1.14663
18 1 20.9495 0.695299 0.731111
19 1 20.5677 -0.196893 0.973264
20 1 19.928 0.408247 1.20339
21 1 19.0906 0.627352 1.09676
22 1 19.4276 -0.0300214 0.241211
23 1 20.2563 0.152433 0.0267974
24 1 20.3992 0.951993 -0.261837
25 1 21.0418 0.682391 -0.655669
26 1 20.8053 0.69401 -1.63302
27 1 20.5138 -0.313224 -1.62814
28 1 20.0835 0.0968426 -1.0605
29 1 20.3342 -1.01764 -0.992777
30 1 21.0135 -0.426996 -0.449826
31 1 21.4344 -0.0681811 0.236111
32 1 21.8503 -1.09064 0.214279
33 1 21.4453 -2.10947 0.0560869
34 1 21.3006 -1.69427 -0.908855
35 1 22.2682 -1.61228 -0.875699
36 1 21.8936 -0.494098 -0.776399
37 1 21.5935 -0.222046 -1.30465
38 1 22.3285 -0.100128 -2.17354
39 1 22.5961 0.273981 -1.18287
40 1 22.3938 0.879128 -1.39139
41 1 22.0815 1.24322 -0.94051
42 1 22.9992 0.964738 -0.425642
43 1 22.2167 0.468298 -0.183825
44 1 22.7947 -0.324674 -0.379397
45 1 23.3364 -1.31547 -0.303149
46 1 24.1121 -0.939322 -0.200079
47 1 23.7975 -0.460853 -0.851531
48 1 23.1075 -0.701121 -1.55378
49 1 22.5179 -1.37123 -1.93716
50 1 23.2538 -1.51442 -2.18013
ITEM: TIMESTEP
14000
ITEM: NUMBER OF ATOMS
50
ITEM: BOX BOUNDS pp pp pp
-5.0000000000000000e+01 5.0000000000000000e+01
-5.0000000000000000e+01 5.0000000000000000e+01
-5.0000000000000000e+01 5.0000000000000000e+01
ITEM: ATOMS id type x y z
1 1 21.214 0.194864 1.69961
2 1 21.2695 -0.282008 2.43086
3 1 21.9246 -1.05805 2.17505
4 1 21.7424 -0.835865 0.975505
5 1 21.7379 -0.641699 0.283535
6 1 20.797 -0.842359 0.529663
7 1 20.3152 -1.29398 1.30803
8 1 20.7413 -0.787447 1.53284
9 1 20.0453 -0.207519 2.09676
10 1 20.0288 0.759448 1.8575
11 1 20.4626 0.188831 1.00791
12 1 19.7323 0.0491775 0.256025
13 1 20.0269 0.756076 0.142105
14 1 20.7232 1.47296 -0.254695
15 1 21.2418 0.904437 0.305382
16 1 20.9935 0.0368514 0.0199738
17 1 20.5017 -0.000502952 -0.615806
18 1 19.8261 0.536646 -1.19398
19 1 20.7091 1.23001 -1.30845
20 1 21.138 0.655204 -1.13346
21 1 21.6874 1.33588 -0.764258
22 1 22.6161 1.11986 -0.367464
23 1 23.1363 1.84339 0.105931
24 1 23.3169 2.49486 -1.01768
25 1 22.592 1.99523 -0.855569
26 1 22.1317 1.56257 -1.74949
27 1 22.2534 0.681225 -2.04374
28 1 22.9689 0.443088 -1.47878
29 1 22.3061 -0.015476 -1.1418
30 1 21.8209 -0.800463 -0.941602
31 1 20.9722 -1.06188 -0.478618
32 1 21.3579 -1.68754 0.301263
33 1 22.3289 -1.70959 0.708442
34 1 22.4996 -1.38162 -0.21783
35 1 22.7774 -1.15227 -1.10951
36 1 23.6076 -1.14943 -1.24418
37 1 23.7891 -0.859703 -0.343268
38 1 24.2067 -0.0818912 -0.748857
39 1 23.8867 1.07853 -1.29016
40 1 24.2108 0.968983 -0.387767
41 1 23.4489 0.606362 -0.0547204
42 1 23.1681 -0.117709 -0.542534
43 1 22.1488 0.214992 -0.0712974
44 1 22.1369 0.28217 0.661844
45 1 22.8235 0.363454 1.21319
46 1 22.7157 -0.589517 0.518758
47 1 23.7921 -0.449118 0.590563
48 1 24.6416 -0.92316 0.321023
49 1 24.5031 -1.958 -0.0233876
50 1 23.4838 -1.8883 0.337161
ITEM: TIMESTEP
15000
ITEM: NUMBER OF ATOMS
50
ITEM: BOX BOUNDS pp pp pp
-5.0000000000000000e+01 5.0000000000000000e+01
-5.0000000000000000e+01 5.0000000000000000e+01
-5.0000000000000000e+01 5.0000000000000000e+01
ITEM: ATOMS id type x y z
1 1 19.9555 -0.193849 -0.0417901
2 1 20.5029 -0.131838 0.819457
3 1 20.9063 -0.970574 0.654014
4 1 21.4097 -1.18153 -0.378017
5 1 22.4106 -1.3564 -0.746947
6 1 22.0711 -0.740913 -1.09888
7 1 23.0546 -1.07566 -1.74894
8 1 23.0917 -0.414883 -1.42055
9 1 22.4356 0.215207 -1.85502
10 1 21.4294 0.0796334 -2.22639
11 1 21.5267 1.04936 -1.79899
12 1 21.0377 1.64664 -1.84978
13 1 20.6103 1.35593 -0.998447
14 1 20.5127 1.39174 0.244778
15 1 20.5152 0.683601 -0.0267304
16 1 21.2669 0.479457 -0.730377
17 1 21.2816 -0.205318 0.00456881
18 1 22.2825 -0.535187 0.0397263
19 1 22.2803 0.225263 -0.717103
20 1 22.2306 1.10736 -0.852336
21 1 23.206 0.960249 -1.0251
22 1 22.432 1.87608 -1.40794
23 1 21.5945 1.92078 -0.820813
24 1 21.5639 1.52098 -0.0887795
25 1 22.1142 1.72049 0.511372
26 1 22.6747 1.87996 -0.310801
27 1 22.7452 0.861074 -0.0939195
28 1 23.1297 0.0773429 0.307131
29 1 23.6449 -0.89724 0.636369
30 1 23.4394 -0.967411 -0.446428
31 1 23.2152 -1.94689 -0.477558
32 1 23.367 -2.28832 -1.30491
33 1 23.937 -1.46244 -1.18975
34 1 24.3099 -1.60274 -0.199038
35 1 23.6098 -1.98873 0.483475
36 1 22.7987 -1.46144 0.232526
37 1 22.525 -2.13106 0.330143
38 1 21.8802 -2.4542 0.862808
39 1 21.7125 -1.5007 1.05147
40 1 22.2657 -1.36526 1.31121
41 1 22.6519 -0.48202 1.08599
42 1 22.4555 0.0828741 1.86408
43 1 22.1724 0.463829 1.0596
44 1 21.7198 1.21002 1.52944
45 1 21.0613 0.743545 1.12703
46 1 21.4589 -0.285509 1.22948
47 1 20.9312 0.289868 2.00558
48 1 20.8397 1.26132 2.45473
49 1 20.9283 1.72742 1.90157
50 1 21.3039 2.81008 2.10878
ITEM: TIMESTEP
16000
ITEM: NUMBER OF ATOMS
50
ITEM: BOX BOUNDS pp pp pp
-5.0000000000000000e+01 5.0000000000000000e+01
-5.0000000000000000e+01 5.0000000000000000e+01
-5.0000000000000000e+01 5.0000000000000000e+01
ITEM: ATOMS id type x y z
1 1 23.1953 -0.649063 -1.23579
2 1 23.6384 -1.18992 -0.666584
3 1 22.5678 -1.03669 -0.430495
4 1 23.0596 -1.55697 0.115222
5 1 22.8936 -1.98229 0.969532
6 1 22.6571 -0.99372 0.848211
7 1 23.1665 -0.124354 0.42565
8 1 23.9745 -0.403211 -0.0832118
9 1 23.7723 0.10353 -0.736601
10 1 23.5032 0.86303 -0.160928
11 1 23.7506 1.42327 -1.22508
12 1 23.1725 0.539503 -1.50713
13 1 22.8353 0.47188 -2.29922
14 1 21.9246 0.639716 -1.59662
15 1 21.742 1.63959 -1.45312
16 1 20.829 1.50133 -1.14924
17 1 21.3302 2.16173 -0.403287
18 1 21.076 1.50089 0.280268
19 1 21.7256 1.08599 -0.519474
20 1 22.2772 0.78501 0.139218
21 1 22.6251 0.545771 -0.484724
22 1 22.6477 1.16878 -0.862473
23 1 22.4825 2.20334 -0.708382
24 1 22.8237 1.76931 0.117502
25 1 22.4815 2.46702 0.647074
26 1 21.8243 1.8383 1.14375
27 1 22.5608 1.73509 1.96597
28 1 22.9796 0.776808 1.54838
29 1 22.8247 -0.235346 1.69074
30 1 22.0385 -1.00772 1.80074
31 1 21.2461 -1.73412 2.04329
32 1 21.6707 -1.5731 0.970769
33 1 20.6163 -1.04581 1.24229
34 1 20.7004 -2.04418 0.837484
35 1 20.5319 -1.49858 0.188657
36 1 20.289 -2.08233 -0.737779
37 1 21.2981 -2.17162 -0.718571
38 1 22.1011 -2.22538 -0.0226276
39 1 21.5422 -1.28928 0.0224756
40 1 21.8231 -0.48583 0.187028
41 1 22.0708 -0.217505 0.874169
42 1 21.5265 0.547625 1.04294
43 1 21.1011 -0.198148 1.35971
44 1 20.6724 -0.384437 0.458363
45 1 20.3435 0.4924 0.433682
46 1 21.2694 0.465337 0.105
47 1 20.898 0.154894 -0.6209
48 1 21.8677 -0.127296 -0.808316
49 1 21.5958 -0.677443 -1.36767
50 1 20.956 0.0541863 -1.65989
ITEM: TIMESTEP
17000
ITEM: NUMBER OF ATOMS
50
ITEM: BOX BOUNDS pp pp pp
-5.0000000000000000e+01 5.0000000000000000e+01
-5.0000000000000000e+01 5.0000000000000000e+01
-5.0000000000000000e+01 5.0000000000000000e+01
ITEM: ATOMS id type x y z
1 1 22.0674 -0.692971 1.42548
2 1 21.9839 -0.450999 2.19307
3 1 21.1305 -0.332433 1.90126
4 1 21.2056 -0.16656 1.02458
5 1 21.955 0.478333 1.55558
6 1 22.6865 0.141677 1.75038