ITEM: TIMESTEP
0
ITEM: NUMBER OF ATOMS
50
ITEM: BOX BOUNDS pp pp pp
-5.0000000000000000e+01 5.0000000000000000e+01
-5.0000000000000000e+01 5.0000000000000000e+01
-5.0000000000000000e+01 5.0000000000000000e+01
ITEM: ATOMS id type x y z
1 1 -2.37418 0 0
2 1 -1.37529 0 0
3 1 -0.377508 0 0
4 1 0.620167 0 0
5 1 1.61774 0 0
6 1 2.61522 0 0
7 1 3.6126 0 0
8 1 4.60987 0 0
9 1 5.60705 0 0
10 1 6.60413 0 0
11 1 7.60111 0 0
12 1 8.59799 0 0
13 1 9.59477 0 0
14 1 10.5914 0 0
15 1 11.588 0 0
16 1 12.5845 0 0
17 1 13.5809 0 0
18 1 14.5772 0 0
19 1 15.5734 0 0
20 1 16.5695 0 0
21 1 17.5653 0 0
22 1 18.562 0 0
23 1 19.5585 0 0
24 1 20.5552 0 0
25 1 21.5518 0 0
26 1 22.5482 0 0
27 1 23.5448 0 0
28 1 24.5415 0 0
29 1 25.538 0 0
30 1 26.5347 0 0
31 1 27.5305 0 0
32 1 28.5266 0 0
33 1 29.5228 0 0
34 1 30.5191 0 0
35 1 31.5155 0 0
36 1 32.512 0 0
37 1 33.5086 0 0
38 1 34.5052 0 0
39 1 35.502 0 0
40 1 36.4989 0 0
41 1 37.4959 0 0
42 1 38.4929 0 0
43 1 39.4901 0 0
44 1 40.4874 0 0
45 1 41.4848 0 0
46 1 42.4823 0 0
47 1 43.4798 0 0
48 1 44.4775 0 0
49 1 45.4753 0 0
50 1 46.4742 0 0
ITEM: TIMESTEP
1000
ITEM: NUMBER OF ATOMS
50
ITEM: BOX BOUNDS pp pp pp
-5.0000000000000000e+01 5.0000000000000000e+01
-5.0000000000000000e+01 5.0000000000000000e+01
-5.0000000000000000e+01 5.0000000000000000e+01
ITEM: ATOMS id type x y z
1 1 8.14549 0.499501 -0.114048
2 1 8.67758 0.61521 0.816374
3 1 8.67748 1.62475 1.23032
4 1 9.22987 2.38768 0.592148
5 1 9.25465 1.45092 0.341687
6 1 9.32734 0.797064 -0.316145
7 1 9.319 -0.210342 -0.329782
8 1 9.83293 0.418339 0.484585
9 1 10.411 -0.386057 0.0973882
10 1 10.3303 0.295866 -0.500149
11 1 11.2278 0.74957 -0.184637
12 1 11.2709 -6.21415e-06 -0.81797
13 1 12.1818 -0.331104 -0.967903
14 1 13.1492 -0.517819 -0.936125
15 1 14.0756 -0.902761 -0.838716
16 1 14.431 -0.0649935 -0.427763
17 1 15.2314 -0.421357 -0.789222
18 1 16.1565 -0.533633 -0.360539
19 1 17.1423 -0.309055 -0.49041
20 1 17.9675 -0.464464 -0.112609
21 1 18.8041 -0.365109 -0.59524
22 1 19.1683 -0.541423 0.337507
23 1 19.6582 -1.30749 -0.172334
24 1 20.3085 -1.14656 0.532147
25 1 21.1507 -1.48849 0.770942
26 1 21.4551 -1.35049 -0.15612
27 1 22.4846 -1.5785 -0.183704
28 1 23.4305 -1.27127 -0.548836
29 1 24.1426 -1.68057 -1.10374
30 1 24.9036 -1.1183 -1.31257
31 1 25.9207 -1.20072 -1.25821
32 1 26.9373 -0.924602 -1.35056
33 1 27.8321 -0.618251 -1.36902
34 1 28.7224 -0.199721 -1.17146
35 1 29.5836 0.0819294 -0.731445
36 1 30.1307 0.895962 -0.478552
37 1 30.5882 0.530055 0.32705
38 1 31.1234 0.112284 -0.347961
39 1 31.1351 1.03919 -0.71879
40 1 32.0601 0.598379 -0.289194
41 1 33.1011 0.443671 -0.0850755
42 1 34.0921 0.427592 0.0448768
43 1 34.9241 0.771431 0.599869
44 1 34.9817 1.76415 0.921944
45 1 35.9339 1.56758 1.1465
46 1 36.3017 0.732766 0.917167
47 1 36.7171 0.295328 1.65107
48 1 37.3797 0.105466 2.33924
49 1 36.496 0.647285 2.62367
50 1 36.993 0.0811044 3.28434
ITEM: TIMESTEP
2000
ITEM: NUMBER OF ATOMS
50
ITEM: BOX BOUNDS pp pp pp
-5.0000000000000000e+01 5.0000000000000000e+01
-5.0000000000000000e+01 5.0000000000000000e+01
-5.0000000000000000e+01 5.0000000000000000e+01
ITEM: ATOMS id type x y z
1 1 20.36 2.79393e-05 0.336836
2 1 20.3344 0.585305 -0.487856
3 1 20.4799 1.19264 0.303604
4 1 19.7217 1.50882 0.0474429
5 1 18.8619 1.2808 0.101944
6 1 17.9843 1.37932 0.60932
7 1 18.1391 0.332174 0.714414
8 1 18.8426 0.678412 1.2452
9 1 19.6667 1.00513 1.07014
10 1 19.4347 0.406121 0.371163
11 1 19.056 0.269652 -0.462449
12 1 19.2835 -0.0445918 -1.29976
13 1 19.6309 -0.844985 -1.74867
14 1 19.371 -1.34213 -0.968715
15 1 18.494 -0.76616 -1.28296
16 1 18.6096 -0.752852 -0.314923
17 1 19.5534 -0.72609 0.0426366
18 1 20.4038 -1.43875 0.0250516
19 1 20.3108 -0.625553 -0.848674
20 1 20.8393 -0.805455 -1.61274
21 1 21.3802 -0.716766 -0.716587
22 1 21.9232 0.0146959 -0.38681
23 1 22.5665 0.552346 -0.812541
24 1 21.8796 0.113863 -1.38104
25 1 21.8245 -0.730209 -2.08978
26 1 22.6424 -0.932495 -2.61001
27 1 22.9527 -0.562973 -1.78085
28 1 22.4357 -0.704683 -1.2269
29 1 22.9802 -1.31809 -0.514894
30 1 23.3612 -0.37341 -0.483276
31 1 23.8813 -1.10154 0.0361247
32 1 24.4501 -0.680568 -0.801968
33 1 24.5873 -1.68868 -1.04771
34 1 25.3312 -1.1757 -1.01162
35 1 25.2014 -0.894425 0.0231203
36 1 25.0631 0.0860666 -0.0650057
37 1 24.4703 0.109989 0.678484
38 1 23.6858 -0.552809 1.08138
39 1 23.8727 0.409765 1.39281
40 1 23.3172 0.43928 0.572051
41 1 23.8165 0.731605 -0.0364852
42 1 24.5077 1.18882 0.553893
43 1 23.9532 2.05839 0.632323
44 1 23.5678 1.33232 0.99605
45 1 24.3862 1.31699 1.70544
46 1 24.909 0.550213 1.55391
47 1 24.8538 -0.428622 2.07267
48 1 24.572 0.169887 2.79645
49 1 25.0202 0.97257 2.74179
50 1 25.7295 0.522338 2.28795
ITEM: TIMESTEP
3000
ITEM: NUMBER OF ATOMS
50
ITEM: BOX BOUNDS pp pp pp
-5.0000000000000000e+01 5.0000000000000000e+01
-5.0000000000000000e+01 5.0000000000000000e+01
-5.0000000000000000e+01 5.0000000000000000e+01
ITEM: ATOMS id type x y z
1 1 21.4511 -0.235693 -0.0537377
2 1 21.0788 0.122108 -0.980721
3 1 21.8602 0.41171 -0.754813
4 1 22.9348 0.194879 -0.490319
5 1 22.7476 0.808834 0.196984
6 1 21.7565 0.908976 0.503678
7 1 20.8833 0.810465 -0.0281785
8 1 20.1775 0.723966 -0.579841
9 1 19.5441 0.0688281 -0.585296
10 1 18.7497 0.238987 -1.07514
11 1 18.9098 0.198814 -2.157
12 1 18.025 0.535023 -2.0216
13 1 18.3118 1.29627 -1.48237
14 1 19.3907 1.21472 -1.80615
15 1 19.6435 0.259514 -1.54261
16 1 20.2205 0.148665 -2.35491
17 1 19.8842 -0.591154 -1.97174
18 1 20.269 -0.51689 -1.11365
19 1 21.0687 -0.949683 -0.695275
20 1 22.1406 -1.37148 -0.416026
21 1 22.947 -0.916839 -0.0717424
22 1 23.8769 -0.15982 -0.0834379
23 1 23.8955 0.20333 -0.971693
24 1 24.9325 0.421247 -1.20622
25 1 24.7355 0.922232 -0.361474
26 1 25.4024 0.891426 0.235687
27 1 24.4781 0.428151 0.61531
28 1 25.0054 0.0261616 -0.156837
29 1 25.1972 -0.804853 -0.617084
30 1 24.5536 -1.13813 -0.181382
31 1 24.7343 -1.645 0.650304
32 1 24.9184 -1.42378 1.63538
33 1 24.2397 -0.986724 1.83137
34 1 24.8877 -0.279387 1.58168
35 1 25.0967 -0.534193 0.706761
36 1 24.2391 -0.526827 0.824881
37 1 23.3717 -0.304197 1.20085
38 1 23.9804 0.265228 1.48414
39 1 23.5626 -0.172322 2.25256
40 1 22.6163 -0.285605 2.48466
41 1 21.8732 0.232271 2.00341
42 1 22.0971 -0.192428 0.970064
43 1 22.5106 -1.0658 1.5298
44 1 21.5347 -0.898444 1.6503
45 1 20.6371 -0.762192 1.16935
46 1 20.2914 -0.815125 0.154418
47 1 20.0058 0.391678 0.382564
48 1 19.812 1.37399 0.234912
49 1 19.2758 1.51291 -0.64305
50 1 18.7442 1.9662 0.10324
ITEM: TIMESTEP
4000
ITEM: NUMBER OF ATOMS
50
ITEM: BOX BOUNDS pp pp pp
-5.0000000000000000e+01 5.0000000000000000e+01
-5.0000000000000000e+01 5.0000000000000000e+01
-5.0000000000000000e+01 5.0000000000000000e+01
ITEM: ATOMS id type x y z
1 1 22.4102 1.11556 -0.0995226
2 1 22.4081 1.26763 0.982012
3 1 22.131 0.506942 0.699259
4 1 21.1114 0.331902 0.669172
5 1 21.2344 1.02943 -0.18583
6 1 21.7257 0.275336 -0.310482
7 1 21.1835 -0.600823 -0.167481
8 1 20.7616 -1.3889 -0.208743
9 1 21.4973 -1.54565 -0.785934
10 1 21.9598 -1.06956 -1.75747
11 1 21.9899 -0.218025 -1.8393
12 1 22.6953 -0.604109 -2.49269
13 1 23.3213 -0.146154 -2.0127
14 1 23.0535 0.376525 -2.80284
15 1 23.1522 1.35831 -3.11944
16 1 22.5156 2.14517 -2.72551
17 1 22.0585 1.32392 -2.20362
18 1 22.7229 0.87265 -1.70587
19 1 23.6366 1.05019 -1.70708
20 1 23.5085 0.74206 -0.650628
21 1 23.8641 1.45868 -0.0525328
22 1 23.9259 0.864225 0.877456
23 1 23.22 0.0379733 0.27214
24 1 23.1232 -0.207712 -0.659776
25 1 22.534 -0.825464 0.0838512
26 1 23.4172 -1.30171 0.0831224
27 1 23.1775 -1.64609 1.07362
28 1 22.9799 -2.14874 1.94192
29 1 23.6553 -1.37726 2.07548
30 1 23.4056 -1.11426 2.94868
31 1 22.728 -0.596568 2.40965
32 1 23.6596 -0.302919 2.04976
33 1 23.5337 -0.628783 1.02068
34 1 22.6892 -0.635601 1.30376
35 1 21.9427 -0.0776627 1.59442
36 1 22.3263 0.663506 1.93253
37 1 21.6989 0.290691 2.67543
38 1 21.3704 -0.582208 2.30297
39 1 20.7008 -0.276882 1.54045
40 1 20.1263 -0.125715 2.32251
41 1 19.6564 -0.979272 1.9626
42 1 19.5745 -0.221438 1.11544
43 1 20.3676 -0.735484 0.605618
44 1 20.0221 -0.282671 -0.313926
45 1 19.8819 -0.237885 -1.36487
46 1 20.2916 0.374197 -1.94625
47 1 20.2449 0.947035 -1.25184
48 1 20.9283 0.27148 -1.086
49 1 21.523 0.9772 -1.39478
50 1 20.8534 1.59693 -1.6974
ITEM: TIMESTEP
5000
ITEM: NUMBER OF ATOMS
50
ITEM: BOX BOUNDS pp pp pp
-5.0000000000000000e+01 5.0000000000000000e+01
-5.0000000000000000e+01 5.0000000000000000e+01
-5.0000000000000000e+01 5.0000000000000000e+01
ITEM: ATOMS id type x y z
1 1 21.5938 -0.0323123 0.854555
2 1 20.8563 0.35409 0.127026
3 1 20.8748 -0.23572 -0.608636
4 1 21.4048 -0.677652 -1.19
5 1 22.2679 -0.375479 -0.875499
6 1 22.5661 -1.18499 -1.12939
7 1 23.0188 -1.0965 -0.301591
8 1 23.7569 -0.81543 0.293611
9 1 24.5903 -1.34816 -0.0792317
10 1 25.5067 -0.800351 0.24213
11 1 26.0933 0.0509521 -0.0164679
12 1 25.3232 0.172418 -0.59851
13 1 24.7242 -0.137805 0.0364891
14 1 23.9054 0.1539 0.0846997
15 1 24.1535 0.451566 0.970458
16 1 25.0419 0.807391 1.19064
17 1 24.2007 0.662073 1.90647
18 1 24.5436 1.48202 1.67352
19 1 24.3319 1.46512 0.833071
20 1 23.3211 0.888727 0.500354
21 1 23.1088 1.48154 1.0663
22 1 22.2309 0.995427 1.41854
23 1 21.7285 1.70031 1.05514
24 1 21.9088 1.18818 0.141737
25 1 22.1012 0.237768 -0.141618
26 1 22.538 0.267542 0.58982
27 1 22.6163 -0.572734 0.854612
28 1 21.9198 -0.70599 1.49143
29 1 21.1627 -1.21501 1.53533
30 1 21.6507 -1.27508 0.613213
31 1 20.8362 -0.655074 0.416161
32 1 20.1531 -0.876603 1.30638
33 1 19.7075 0.00837278 1.76587
34 1 18.7033 -0.106855 1.40128
35 1 19.0315 -0.763488 0.652811
36 1 19.7764 -1.36555 0.284213
37 1 19.8471 -0.22543 0.251646
38 1 19.3377 -0.278981 -0.636136
39 1 19.5379 0.0206107 -1.40845
40 1 19.765 0.822603 -0.779709
41 1 20.4128 1.64862 -0.475384
42 1 20.8767 1.01143 -0.867817
43 1 21.4045 1.44074 -1.6263
44 1 22.2757 1.26199 -1.43664
45 1 21.5043 0.397185 -1.39069
46 1 20.4901 0.339279 -1.58681
47 1 20.5088 -0.729432 -1.76094
48 1 21.2864 -0.419316 -2.27064
49 1 21.7983 -1.31476 -2.0949
50 1 22.2058 -2.10117 -2.28213
ITEM: TIMESTEP
6000
ITEM: NUMBER OF ATOMS
50
ITEM: BOX BOUNDS pp pp pp
-5.0000000000000000e+01 5.0000000000000000e+01
-5.0000000000000000e+01 5.0000000000000000e+01
-5.0000000000000000e+01 5.0000000000000000e+01
ITEM: ATOMS id type x y z
1 1 21.0148 1.7168 -1.69078
2 1 21.5859 0.83767 -1.92087
3 1 20.9542 0.42389 -1.12766
4 1 21.7076 0.269041 -0.657992
5 1 22.2272 0.217596 0.309352
6 1 22.3335 -0.534318 -0.271182
7 1 22.5854 -1.28883 0.261349
8 1 23.4233 -1.00094 0.191262
9 1 24.2549 -1.46565 0.304657
10 1 24.1522 -1.15567 1.30303
11 1 24.2146 -0.43756 1.95588
12 1 23.6078 -0.695979 2.75779
13 1 23.2929 -0.753934 1.67139
14 1 22.559 -0.138951 1.42249
15 1 22.3143 0.844403 1.26607
16 1 22.1091 1.39189 2.15944
17 1 21.3419 1.06495 1.43143
18 1 21.0868 0.427997 2.01694
19 1 20.2255 1.15261 2.14353
20 1 20.2716 0.939854 1.31389
21 1 19.7964 1.5514 0.565789
22 1 20.6813 1.4554 0.450119
23 1 21.4535 1.17287 0.139202
24 1 21.1058 0.316289 0.78011
25 1 20.426 0.0996513 0.404248
26 1 19.7261 0.593327 -0.096607
27 1 19.4554 0.548904 0.752618
28 1 19.2777 -0.477969 0.673719
29 1 19.4442 -0.516949 -0.22159
30 1 18.5252 -0.158577 -0.00432336
31 1 18.7896 -0.745839 -0.964188
32 1 19.511 -1.28608 -1.17286
33 1 19.8323 -0.72972 -2.01035
34 1 20.7083 -0.545898 -1.47885
35 1 21.5135 -0.897318 -1.06386
36 1 22.4332 -0.96755 -1.41638
37 1 23.2735 -0.439443 -1.76504
38 1 22.4441 0.0317762 -1.64
39 1 22.6455 0.610617 -0.768483
40 1 23.1695 1.33237 -0.450132
41 1 23.3353 0.447921 0.0535963
42 1 24.3669 0.708392 -0.0269039
43 1 24.639 -0.105736 0.594327
44 1 25.1807 -0.991418 0.573622
45 1 24.9199 -0.547073 -0.367673
46 1 24.1494 -1.29198 -0.779732
47 1 24.2411 -0.930276 -1.58191
48 1 23.6622 -0.441161 -0.669771
49 1 23.9958 0.31268 -1.20577
50 1 24.5351 0.0765259 -2.14293
ITEM: TIMESTEP
7000
ITEM: NUMBER OF ATOMS
50
ITEM: BOX BOUNDS pp pp pp
-5.0000000000000000e+01 5.0000000000000000e+01
-5.0000000000000000e+01 5.0000000000000000e+01
-5.0000000000000000e+01 5.0000000000000000e+01
ITEM: ATOMS id type x y z
1 1 23.7763 0.990201 -2.06803
2 1 23.4677 0.080348 -1.80955
3 1 23.041 -0.785835 -1.56754
4 1 21.991 -0.155451 -1.53271
5 1 21.9594 0.536424 -0.936144
6 1 21.6281 -0.373076 -0.644862
7 1 20.8938 -1.16244 -0.487632
8 1 20.0777 -0.936688 -0.247668
9 1 20.7828 -0.630844 0.354135
10 1 21.5315 -0.580135 0.933039
11 1 22.1667 -0.403909 1.67638
12 1 22.9433 -0.16979 2.38469
13 1 22.0818 -0.916101 2.71254
14 1 21.4983 -1.25627 3.23935
15 1 20.6743 -0.600047 3.26173
16 1 21.3187 0.289611 2.98288
17 1 21.4869 0.604749 2.19904
18 1 21.3853 0.744272 1.20022
19 1 20.8088 1.23203 0.51756
20 1 21.3806 0.993212 -0.0174052
21 1 20.8125 0.195806 -0.441011
22 1 19.9199 0.395131 0.0800508
23 1 20.1076 0.829568 -0.784942
24 1 20.059 -0.175921 -1.29742
25 1 20.2676 -0.911098 -2.02956
26 1 20.7816 0.0362232 -2.382
27 1 21.6859 0.393769 -2.57971
28 1 22.3002 1.22726 -2.73177
29 1 22.6423 1.3604 -3.42443
30 1 22.9175 0.522964 -2.71624
31 1 22.5275 -0.413244 -2.57052
32 1 21.6311 -0.858338 -2.26208
33 1 21.472 -1.45962 -3.08765
34 1 20.9933 -2.32886 -2.54774
35 1 21.2243 -1.77306 -1.77664
36 1 21.876 -1.37857 -1.21859
37 1 22.5121 -0.997013 -0.661465
38 1 22.1093 -0.861833 0.213775
39 1 23.0043 -0.403361 0.16857
40 1 22.602 0.322749 -0.253358
41 1 23.2905 0.676444 -0.296834
42 1 23.6413 1.19132 0.499565
43 1 23.1447 1.25081 1.24519
44 1 22.9062 0.356758 1.52402
45 1 23.9583 0.487876 1.43482
46 1 24.0895 -0.0483863 2.13897
47 1 24.097 0.38064 3.04166
48 1 23.3127 1.02928 2.88415
49 1 23.6949 1.87179 3.39706
50 1 24.0252 1.58027 4.28413
ITEM: TIMESTEP
8000
ITEM: NUMBER OF ATOMS
50
ITEM: BOX BOUNDS pp pp pp
-5.0000000000000000e+01 5.0000000000000000e+01
-5.0000000000000000e+01 5.0000000000000000e+01
-5.0000000000000000e+01 5.0000000000000000e+01
ITEM: ATOMS id type x y z
1 1 25.6249 -1.84577 -0.885079
2 1 24.75 -1.62469 -0.834206
3 1 23.7158 -1.08066 -0.677303
4 1 23.1855 -0.402513 -0.391438
5 1 22.4947 -1.02205 -0.387947
6 1 22.0238 -0.357747 0.17651
7 1 21.2978 -0.258734 1.00436
8 1 20.6555 -0.348107 0.254239
9 1 20.2385 -0.255794 -0.720433
10 1 20.2349 -1.11448 -0.16473
11 1 19.557 -0.315815 0.0139399
12 1 19.7426 0.664812 -0.130209
13 1 19.4505 0.526824 -1.02978
14 1 19.5022 1.01562 -1.72649
15 1 18.6336 0.882791 -1.49092
16 1 18.4939 0.915344 -0.419207
17 1 18.6663 1.7108 -0.883195
18 1 19.5471 2.10936 -0.524886
19 1 20.1576 1.80266 0.141625
20 1 21.2349 1.66781 0.147972
21 1 21.4652 0.718978 0.186948
22 1 21.6476 0.811289 -0.698585
23 1 22.5512 0.296095 -0.699035
24 1 22.6935 1.2259 -0.693917
25 1 22.2407 1.59325 0.113966
26 1 23.371 1.49991 -0.0243583
27 1 24.1884 1.18169 0.307048
28 1 24.0548 0.390667 -0.38659
29 1 24.5922 -0.0961883 -1.06612
30 1 24.322 0.574503 -1.62767
31 1 24.2625 -0.347914 -2.08909
32 1 23.762 -1.1718 -1.60738
33 1 23.2692 -1.89592 -1.12391
34 1 23.003 -2.48643 -0.464936
35 1 23.2083 -1.83252 0.284727
36 1 23.9101 -2.10062 -0.383381
37 1 24.3675 -1.61538 0.517513
38 1 24.8269 -0.837195 0.417105
39 1 24.7781 -0.138921 1.18314
40 1 23.8794 -0.237635 0.660926
41 1 23.3763 0.511511 0.8248
42 1 22.5438 0.694621 0.348753
43 1 22.3039 0.16344 1.16963
44 1 21.3731 0.776055 1.20382
45 1 20.4705 0.808375 0.70919
46 1 19.6148 0.283006 0.92711
47 1 20.1347 0.387262 1.84238
48 1 21.2113 -0.200434 2.13664
49 1 20.7227 -0.518097 2.96309
50 1 21.1478 -1.10717 3.59537
ITEM: TIMESTEP
9000
ITEM: NUMBER OF ATOMS
50
ITEM: BOX BOUNDS pp pp pp
-5.0000000000000000e+01 5.0000000000000000e+01
-5.0000000000000000e+01 5.0000000000000000e+01
-5.0000000000000000e+01 5.0000000000000000e+01
ITEM: ATOMS id type x y z
1 1 23.3045 0.946042 1.67926
2 1 23.4407 0.216523 2.28826
3 1 22.8212 -0.121792 1.56915
4 1 22.9444 -0.554597 0.740277
5 1 22.6152 -0.0619278 0.218294
6 1 22.4341 -1.05855 0.0564087
7 1 22.2404 -0.515785 -0.651395
8 1 23.0167 0.0491231 -0.982013
9 1 23.3977 -0.886539 -0.809478
10 1 23.9697 -0.460022 -1.41991
11 1 23.1101 -0.34843 -2.19324
12 1 23.0829 0.485467 -1.99641
13 1 22.713 0.533939 -2.77113
14 1 22.0773 -0.175689 -2.76647
15 1 21.7503 0.744123 -2.27931
16 1 20.9839 0.200793 -1.95777
17 1 21.4289 0.828001 -1.30354
18 1 21.4859 1.79197 -1.42097
19 1 22.3665 1.91387 -1.03528
20 1 22.7564 1.69666 -0.318511
21 1 22.2242 0.95032 -0.697805
22 1 21.3812 1.32258 -0.0138082
23 1 21.3621 2.13576 0.391306
24 1 22.3894 2.3791 0.594011
25 1 22.9967 1.64664 0.967105
26 1 21.9679 1.71149 1.41194
27 1 22.0896 0.718038 1.20505
28 1 22.5261 0.934601 0.331122
29 1 23.4387 0.980684 0.182894
30 1 23.9536 0.200866 -0.0219242
31 1 24.4061 -0.666744 0.0566202
32 1 24.1567 -0.951059 0.969378
33 1 23.9119 -0.567531 2.00536
34 1 23.7731 -1.60235 1.92516
35 1 23.0577 -1.48411 1.02534
36 1 22.703 -1.82663 2.0432
37 1 22.3067 -1.09393 1.61404
38 1 21.2294 -0.990064 1.77745
39 1 20.5831 -0.406411 1.69941
40 1 20.9179 -0.516305 0.777893
41 1 21.398 0.0415661 0.117121
42 1 20.6231 0.375566 -0.361792
43 1 20.9986 -0.475279 -0.824769
44 1 20.1152 -0.832072 -0.660069
45 1 20.3472 -1.61773 -1.00234
46 1 19.4906 -1.90305 -0.64032
47 1 18.8865 -1.44209 0.115619
48 1 19.0298 -1.17614 1.06231
49 1 19.2301 -0.434291 0.124723
50 1 19.0663 -0.63463 -0.820449
ITEM: TIMESTEP
10000
ITEM: NUMBER OF ATOMS
50
ITEM: BOX BOUNDS pp pp pp
-5.0000000000000000e+01 5.0000000000000000e+01
-5.0000000000000000e+01 5.0000000000000000e+01
-5.0000000000000000e+01 5.0000000000000000e+01
ITEM: ATOMS id type x y z
1 1 19.1588 -0.439082 0.0103439
2 1 19.8259 0.245344 -0.523057
3 1 20.5167 -0.268292 -0.223684
4 1 20.8915 -0.082152 0.684066
5 1 21.9468 -0.378833 0.926854
6 1 22.7207 -1.27453 0.930715
7 1 23.0512 -0.771814 1.92984
8 1 23.0403 -0.122291 2.64989
9 1 23.7186 0.311702 2.17493
10 1 24.5268 0.852267 1.83354
11 1 23.8687 0.799031 1.17539
12 1 23.8063 -0.170292 0.944689
13 1 24.3042 -0.919823 0.725148
14 1 23.2449 -1.01662 0.185186
15 1 24.098 -0.728572 -0.208301
16 1 24.4918 -0.862971 -1.00348
17 1 25.077 -0.0889021 -0.596835
18 1 24.3854 0.365794 -1.10439
19 1 24.3304 0.816585 -0.127756
20 1 23.3989 1.03533 -0.416619
21 1 23.0421 1.07114 -1.35142
22 1 22.7759 1.9563 -0.822999
23 1 21.9235 1.85079 -1.36688
24 1 21.2097 1.34081 -0.664501
25 1 20.7535 0.858021 -0.0259258
26 1 21.3189 0.318123 -0.727417
27 1 22.178 0.851069 -0.562217
28 1 21.8223 0.611705 0.344326
29 1 21.5248 1.24482 1.05372
30 1 20.8151 1.05808 1.64025
31 1 21.6535 0.852769 2.22905
32 1 21.092 0.0839341 2.45743
33 1 21.3674 -0.432093 1.72819
34 1 21.5231 -1.01908 2.4593
35 1 21.1151 -1.40443 1.55809
36 1 20.9394 -1.78896 0.561872
37 1 20.2849 -1.24759 -0.275456
38 1 21.0443 -1.34433 -0.636383
39 1 21.6533 -0.916339 -0.186023
40 1 22.3062 -0.349644 -0.0541764
41 1 22.3794 -0.244981 -0.983923
42 1 22.0633 0.505649 -1.55414
43 1 22.7449 0.669587 -2.27294
44 1 21.9756 0.555668 -3.00518
45 1 21.296 0.779866 -2.23996
46 1 21.2998 -0.32998 -2.32573
47 1 21.3761 -0.692678 -1.5014
48 1 20.4676 -0.569906 -1.18486
49 1 19.547 -0.983415 -1.21272
50 1 18.604 -0.58681 -1.04443
ITEM: TIMESTEP
11000
ITEM: NUMBER OF ATOMS
50
ITEM: BOX BOUNDS pp pp pp
-5.0000000000000000e+01 5.0000000000000000e+01
-5.0000000000000000e+01 5.0000000000000000e+01
-5.0000000000000000e+01 5.0000000000000000e+01
ITEM: ATOMS id type x y z
1 1 21.6021 -2.46117 -2.37235
2 1 21.8135 -1.92102 -1.5289
3 1 21.4069 -0.990637 -1.74487
4 1 21.3986 -0.158919 -1.67563
5 1 22.2901 -0.440493 -1.08588
6 1 21.7353 0.42654 -0.778092
7 1 20.8692 1.02033 -0.447209
8 1 20.8395 0.430809 0.333745
9 1 20.7005 0.197825 1.17856
10 1 21.0987 -0.867323 1.49411
11 1 21.7841 -0.324321 0.888868
12 1 21.687 0.00530544 1.79178
13 1 22.1594 -0.887827 1.62436
14 1 21.9374 -1.93856 1.66965
15 1 22.8074 -1.61419 1.56007
16 1 23.1561 -0.671112 1.40559
17 1 23.4339 -0.36866 0.497113
18 1 24.2299 0.269586 0.377063
19 1 23.5837 0.883288 0.0776187
20 1 22.9111 1.38805 0.622878
21 1 22.3824 1.64466 1.51501
22 1 21.9628 2.39697 2.0239
23 1 22.2408 2.90595 1.22214
24 1 21.4361 2.4192 1.09463
25 1 21.1404 1.88726 0.271648
26 1 21.5579 1.22764 0.871713
27 1 21.2053 1.64556 1.74271
28 1 20.1871 1.36842 2.04636
29 1 20.516 1.61382 1.11239
30 1 20.1457 1.89587 0.0837372
31 1 19.5009 1.3529 0.512976
32 1 19.6748 0.512352 0.790841
33 1 19.5562 0.537605 -0.115606
34 1 19.8991 -0.435353 -0.231446
35 1 20.7122 -0.63097 -0.890947
36 1 21.4926 -0.575483 -0.276931
37 1 20.8504 -0.836968 0.363278
38 1 21.2671 -1.6662 -0.119442
39 1 22.2943 -1.43769 -0.375801
40 1 22.8964 -2.09489 -0.698852
41 1 23.4456 -1.36028 -1.09844
42 1 23.5785 -1.1901 -0.149887
43 1 23.3908 -0.379834 -0.804894
44 1 23.9262 0.398009 -0.918657
45 1 24.7218 -0.269666 -1.03961
46 1 24.5513 0.385616 -1.80625
47 1 23.6653 -0.306742 -1.81054
48 1 24.4365 -1.095 -1.82192
49 1 24.4106 -0.497675 -2.59823
50 1 24.0107 -1.39247 -2.78237
ITEM: TIMESTEP
12000
ITEM: NUMBER OF ATOMS
50
ITEM: BOX BOUNDS pp pp pp
-5.0000000000000000e+01 5.0000000000000000e+01
-5.0000000000000000e+01 5.0000000000000000e+01
-5.0000000000000000e+01 5.0000000000000000e+01
ITEM: ATOMS id type x y z
1 1 23.6713 0.649669 -0.143464
2 1 23.5296 0.342424 -1.17139
3 1 23.2357 0.980445 -1.73454
4 1 22.8411 1.76626 -1.59768
5 1 23.393 2.099 -0.92061
6 1 23.1692 1.65265 0.0563184
7 1 22.4712 1.21148 -0.626316
8 1 22.2232 0.537167 -1.39977
9 1 21.9754 -0.35089 -0.986275
10 1 21.0492 -0.142793 -0.72019
11 1 20.1845 -0.499529 -1.15025
12 1 20.0307 0.195265 -0.247708
13 1 19.8717 1.2524 0.227066
14 1 20.5023 1.15729 1.06163
15 1 20.9069 0.360725 1.40291
16 1 21.5113 -0.414308 1.69671
17 1 21.917 -1.04999 1.17088
18 1 22.8838 -1.23204 1.36425
19 1 22.7989 -0.244877 0.871507
20 1 22.5672 0.556899 0.25388
21 1 21.4678 0.553725 0.13327
22 1 21.9182 0.236 0.967966
23 1 21.4675 1.18146 1.05836
24 1 22.2676 1.06012 1.55225
25 1 22.084 2.01659 1.21423
26 1 21.2924 2.02071 0.598955
27 1 21.3981 1.48818 -0.363115
28 1 20.7073 1.08172 -0.674937
29 1 20.4746 0.408463 -1.45075
30 1 21.156 -0.0611017 -2.06102
31 1 21.3965 -0.849367 -1.76993
32 1 22.0597 -1.30487 -2.5556
33 1 22.4309 -1.78005 -1.75195
34 1 21.4316 -2.01945 -2.0061
35 1 20.8666 -3.0014 -2.23859
36 1 20.5302 -2.42382 -1.53142
37 1 20.7573 -1.5237 -1.11385
38 1 21.4879 -2.10829 -0.654443
39 1 20.5003 -2.24711 -0.31051
40 1 20.4016 -1.20821 0.109886
41 1 20.6231 -0.410604 0.780284
42 1 21.386 -0.737772 0.347769
43 1 22.2758 -0.934952 0.171746
44 1 22.9221 -0.318059 -0.287154
45 1 23.6613 -0.435449 0.504448
46 1 23.8429 0.114657 1.23206
47 1 24.1581 0.195864 2.12723
48 1 24.8909 0.295882 2.84995
49 1 25.6743 0.822337 3.46652
50 1 26.236 1.06127 4.2475
ITEM: TIMESTEP
13000
ITEM: NUMBER OF ATOMS
50
ITEM: BOX BOUNDS pp pp pp
-5.0000000000000000e+01 5.0000000000000000e+01
-5.0000000000000000e+01 5.0000000000000000e+01
-5.0000000000000000e+01 5.0000000000000000e+01
ITEM: ATOMS id type x y z
1 1 22.9748 -0.808633 0.748997
2 1 22.7687 0.225255 1.21514
3 1 23.0475 0.887986 1.94993
4 1 23.0166 -0.0071661 2.26077
5 1 23.4357 -0.855745 1.88421
6 1 23.9804 -0.883867 1.18911
7 1 23.9846 -0.0626265 0.659118
8 1 23.7702 -0.328651 -0.285642
9 1 24.1074 -1.1229 -0.354692
10 1 23.3411 -1.3039 -0.816733
11 1 22.6773 -0.38152 -0.650082
12 1 22.378 0.100804 -1.23895
13 1 21.664 -0.462823 -0.967196
14 1 20.7714 0.0775246 -0.579859
15 1 19.9004 0.0737043 -0.87735
16 1 19.9314 0.898867 -0.404457
17 1 20.1764 0.266136 0.370871
18 1 21.0963 0.568259 0.338488
19 1 21.4777 1.41898 0.369633
20 1 21.042 1.34568 -0.536455
21 1 21.4714 0.8951 -1.13343
22 1 20.559 0.637664 -1.63576
23 1 20.6129 1.42833 -2.29416
24 1 21.321 2.05709 -1.83389
25 1 20.7286 2.29951 -0.906159
26 1 21.4385 2.52895 -0.277565
27 1 22.2645 2.1854 -0.203124
28 1 22.3285 1.16166 0.09699
29 1 21.9776 0.252387 -0.164076
30 1 23.0737 0.4049 -0.090127
31 1 23.4067 0.432431 -1.05054
32 1 22.5547 1.10491 -1.0346
33 1 22.5037 0.835993 -1.91785
34 1 23.1177 0.340053 -2.14964
35 1 23.2418 -0.374006 -1.60379
36 1 22.5756 -1.18897 -1.85555
37 1 22.2462 -1.4145 -0.975013
38 1 22.7588 -1.43298 -0.00367306
39 1 23.6196 -1.65577 0.577666
40 1 22.9107 -2.0086 0.877451
41 1 22.0344 -2.05412 0.686396
42 1 21.5597 -1.40973 1.05873
43 1 20.7749 -1.70267 0.68761
44 1 20.6541 -1.53964 1.58745
45 1 21.1588 -0.873596 2.15391
46 1 21.5711 0.127529 2.46838
47 1 20.5452 0.131059 2.20722
48 1 20.8421 -0.106275 1.31046
49 1 21.8261 -0.16434 0.975557
50 1 21.2806 -0.543132 0.166258
ITEM: TIMESTEP
14000
ITEM: NUMBER OF ATOMS
50
ITEM: BOX BOUNDS pp pp pp
-5.0000000000000000e+01 5.0000000000000000e+01
-5.0000000000000000e+01 5.0000000000000000e+01
-5.0000000000000000e+01 5.0000000000000000e+01
ITEM: ATOMS id type x y z
1 1 20.2448 -0.893955 3.50971
2 1 19.3452 -0.807215 2.96497
3 1 19.709 -1.76047 3.05196
4 1 20.2096 -1.3215 2.1996
5 1 20.5534 -0.44057 2.70455
6 1 20.6657 0.102268 1.86498
7 1 20.2528 0.652205 0.977827
8 1 21.1372 0.186628 0.964262
9 1 21.8896 0.0887595 1.60598
10 1 22.8834 -0.137386 1.37322
11 1 22.4666 -0.73861 0.867618
12 1 23.0325 -0.364275 0.165594
13 1 23.7186 -0.0294454 -0.649639
14 1 24.194 -0.289023 -1.31219
15 1 24.3626 -0.472197 -2.31034
16 1 23.6647 -1.04321 -1.71188
17 1 22.6731 -1.03076 -1.87409
18 1 23.2794 -0.480162 -2.51933
19 1 23.1143 -0.158297 -1.47389
20 1 22.817 0.68972 -1.68551
21 1 23.7888 0.875857 -1.67687
22 1 23.5384 0.991076 -0.737963
23 1 23.7909 1.88155 -1.06838
24 1 22.9567 1.68676 -1.45961
25 1 22.9648 2.58448 -1.06299
26 1 22.1644 2.44704 -1.36133
27 1 22.1942 1.58765 -0.750417
28 1 21.4163 1.35548 -0.351832
29 1 21.9813 0.573892 0.354418
30 1 21.7439 0.139246 -0.355433
31 1 22.6864 0.478078 -0.528914
32 1 22.8625 1.00361 0.158249
33 1 23.3209 1.7158 0.140171
34 1 23.779 0.767698 0.390629
35 1 24.3338 -0.0217561 0.0337515
36 1 23.8507 -0.831701 0.0499899
37 1 23.8902 -1.70202 -0.555795
38 1 23.3017 -2.41965 -0.387703
39 1 22.8876 -1.57256 0.124495
40 1 22.0205 -1.14269 -0.187272
41 1 21.6911 -1.56138 0.590004
42 1 21.327 -0.608657 0.462578
43 1 20.6147 -0.839384 1.23393
44 1 20.1658 -1.4957 0.718027
45 1 20.1047 -0.792792 0.23296
46 1 19.4906 -0.0522629 0.638495
47 1 19.6507 0.175613 -0.255056
48 1 19.3601 0.760995 -0.868469
49 1 20.0939 1.17063 -0.598686
50 1 20.3149 1.09259 -1.63439
ITEM: TIMESTEP
15000
ITEM: NUMBER OF ATOMS
50
ITEM: BOX BOUNDS pp pp pp
-5.0000000000000000e+01 5.0000000000000000e+01
-5.0000000000000000e+01 5.0000000000000000e+01
-5.0000000000000000e+01 5.0000000000000000e+01
ITEM: ATOMS id type x y z
1 1 18.6916 -2.49839 0.571909
2 1 19.3675 -2.44768 -0.079015
3 1 18.6937 -1.52864 0.254531
4 1 19.2961 -1.27597 -0.6966
5 1 18.9827 -1.47589 -1.73379
6 1 20.0436 -1.63491 -1.36001
7 1 20.6257 -0.794728 -1.26394
8 1 21.332 -0.372189 -0.885645
9 1 21.5493 0.408193 -0.260814
10 1 21.4864 -0.483691 0.209283
11 1 21.2997 -1.43379 -0.159262
12 1 22.1463 -1.28281 -0.616466
13 1 22.294 -0.373324 -0.639683
14 1 22.6212 -0.225068 0.314564
15 1 22.768 0.0690269 1.28601
16 1 23.0848 -0.558676 1.99523
17 1 23.2504 -1.2876 1.37006
18 1 24.2593 -1.64366 1.19851
19 1 24.7059 -1.81002 0.473881
20 1 24.4283 -1.08214 -0.177776
21 1 23.8897 -0.765835 0.564666
22 1 23.5858 -0.0808187 -0.327064
23 1 23.6764 0.680809 0.11076
24 1 23.6887 1.7105 -0.0571165
25 1 23.5245 1.80621 -0.870207
26 1 23.3983 2.51251 -1.38514
27 1 22.5068 1.86606 -1.65041
28 1 22.12 2.28411 -0.87511
29 1 21.4936 2.72379 -0.1594
30 1 21.5922 1.81362 0.263018
31 1 22.4349 1.30117 0.170111
32 1 21.8613 0.665191 0.69752
33 1 22.5279 1.12757 1.29501
34 1 23.08 1.72478 1.23041
35 1 23.7323 0.920201 1.43961
36 1 23.216 0.944314 2.21362
37 1 22.4197 0.539084 2.23299
38 1 21.3108 0.212314 1.88093
39 1 21.7907 -0.186658 1.15411
40 1 21.8292 -0.991469 1.52197
41 1 22.1299 -1.0775 0.672103
42 1 22.8891 -1.26482 0.130493
43 1 23.2702 -0.894949 -0.766654
44 1 22.9981 0.104328 -1.2486
45 1 22.1061 0.717554 -1.25711
46 1 21.6206 0.19939 -1.83981
47 1 20.8619 0.309458 -2.17117
48 1 21.1879 1.07504 -1.51443
49 1 20.4088 0.627523 -1.06759
50 1 20.422 1.12851 -0.188491
ITEM: TIMESTEP
16000
ITEM: NUMBER OF ATOMS
50
ITEM: BOX BOUNDS pp pp pp
-5.0000000000000000e+01 5.0000000000000000e+01
-5.0000000000000000e+01 5.0000000000000000e+01
-5.0000000000000000e+01 5.0000000000000000e+01
ITEM: ATOMS id type x y z
1 1 21.2102 -2.31385 -3.0362
2 1 21.2433 -1.38568 -3.57954
3 1 20.7507 -0.506047 -3.20976
4 1 21.007 -1.11581 -2.48454
5 1 20.7654 -0.991168 -1.55176
6 1 21.281 -1.82149 -1.78933
7 1 22.2677 -2.16967 -2.02812
8 1 22.4344 -1.66194 -1.13175
9 1 22.0405 -0.580108 -1.19803
10 1 22.2791 -0.0522874 -1.95679
11 1 22.175 0.584443 -1.16569
12 1 21.306 0.76515 -0.521633
13 1 22.1162 1.20827 -0.0503017
14 1 22.0024 0.583547 0.513812
15 1 22.4356 -0.121068 1.19503
16 1 21.6306 -0.380868 2.00131
17 1 22.6003 -0.771325 2.08897
18 1 23.3302 -0.146755 2.43189
19 1 22.4229 -0.363756 3.00993
20 1 22.2868 0.411206 2.2861
21 1 22.9054 0.981931 2.73082
22 1 22.4463 1.11295 1.56495
23 1 23.5065 1.06175 1.25707
24 1 23.5957 0.0672325 1.42411
25 1 23.709 0.228613 0.544656
26 1 22.8372 0.210028 -0.0291156
27 1 23.4451 1.01833 -0.198596
28 1 23.1602 1.88517 0.299398
29 1 22.398 2.35483 0.703352
30 1 21.9703 2.1974 -0.229557
31 1 21.9717 1.6033 -1.22875
32 1 21.2241 2.52632 -0.982861
33 1 20.5275 2.35586 -0.229943
34 1 21.0872 1.83143 0.363682
35 1 20.4753 1.1658 0.204688
36 1 20.2551 0.586725 1.12987
37 1 20.4625 -0.208979 1.51826
38 1 20.7249 0.632085 2.14851
39 1 21.3573 0.589953 1.25447
40 1 21.3119 -0.217363 0.94853
41 1 20.9347 -0.889348 0.1767
42 1 21.1784 -2.01897 0.0273739
43 1 21.4467 -1.55523 -0.714382
44 1 22.2079 -1.38014 -0.0575479
45 1 22.0033 -0.329294 -0.0158422
46 1 22.9015 -0.700048 0.424838
47 1 23.8165 -0.69994 -0.0719883
48 1 23.3809 -1.43783 -0.355462
49 1 23.4416 -1.01294 -1.42087
50 1 24.2318 -1.13043 -1.00992
ITEM: TIMESTEP
17000
ITEM: NUMBER OF ATOMS
50
ITEM: BOX BOUNDS pp pp pp
-5.0000000000000000e+01 5.0000000000000000e+01
-5.0000000000000000e+01 5.0000000000000000e+01
-5.0000000000000000e+01 5.0000000000000000e+01
ITEM: ATOMS id type x y z
1 1 23.9126 -0.0755525 1.07852
2 1 23.7759 0.34693 0.0804021
3 1 24.5829 0.377726 -0.101008
4 1 25.1289 0.0380003 0.578287
5 1 24.6693 -0.907802 0.544232
6 1 23.7912 -0.954854 0.674047
7 1 23.8272 -1.70551 0.0918155