ITEM: TIMESTEP
0
ITEM: NUMBER OF ATOMS
50
ITEM: BOX BOUNDS pp pp pp
-5.0000000000000000e+01 5.0000000000000000e+01
-5.0000000000000000e+01 5.0000000000000000e+01
-5.0000000000000000e+01 5.0000000000000000e+01
ITEM: ATOMS id type x y z
1 1 -2.3514 0 0
2 1 -1.35344 0 0
3 1 -0.357552 0 0
4 1 0.63833 0 0
5 1 1.63423 0 0
6 1 2.63014 0 0
7 1 3.62603 0 0
8 1 4.62192 0 0
9 1 5.61781 0 0
10 1 6.61369 0 0
11 1 7.60958 0 0
12 1 8.60547 0 0
13 1 9.60136 0 0
14 1 10.5973 0 0
15 1 11.5931 0 0
16 1 12.589 0 0
17 1 13.5849 0 0
18 1 14.5808 0 0
19 1 15.5767 0 0
20 1 16.5726 0 0
21 1 17.5685 0 0
22 1 18.5644 0 0
23 1 19.5603 0 0
24 1 20.5562 0 0
25 1 21.5521 0 0
26 1 22.5479 0 0
27 1 23.5438 0 0
28 1 24.5397 0 0
29 1 25.5356 0 0
30 1 26.5315 0 0
31 1 27.5274 0 0
32 1 28.5233 0 0
33 1 29.5192 0 0
34 1 30.5151 0 0
35 1 31.511 0 0
36 1 32.5069 0 0
37 1 33.5027 0 0
38 1 34.4986 0 0
39 1 35.4945 0 0
40 1 36.4904 0 0
41 1 37.4863 0 0
42 1 38.4822 0 0
43 1 39.4781 0 0
44 1 40.474 0 0
45 1 41.4699 0 0
46 1 42.4658 0 0
47 1 43.4617 0 0
48 1 44.4576 0 0
49 1 45.4534 0 0
50 1 46.4514 0 0
ITEM: TIMESTEP
1000
ITEM: NUMBER OF ATOMS
50
ITEM: BOX BOUNDS pp pp pp
-5.0000000000000000e+01 5.0000000000000000e+01
-5.0000000000000000e+01 5.0000000000000000e+01
-5.0000000000000000e+01 5.0000000000000000e+01
ITEM: ATOMS id type x y z
1 1 8.23791 0.527813 1.55943
2 1 8.35646 1.01048 0.657795
3 1 8.44355 0.606418 -0.200424
4 1 9.34301 0.804916 -0.389751
5 1 9.43023 1.03744 0.624701
6 1 10.4878 1.4249 0.599145
7 1 10.356 1.41951 -0.483326
8 1 11.0496 0.652308 -0.485802
9 1 10.4161 0.180367 -0.209412
10 1 10.8163 0.319175 0.639759
11 1 11.3716 -0.255342 -0.00141809
12 1 11.9055 0.0947055 -0.752678
13 1 12.8371 -0.118968 -1.08423
14 1 13.7982 -0.474618 -0.892994
15 1 14.3916 -1.03062 -0.703945
16 1 14.7604 -0.370171 -0.157642
17 1 15.3027 -0.4459 -0.969582
18 1 16.0824 -0.21537 -0.462394
19 1 16.9558 -0.200822 -0.468522
20 1 17.6778 -0.772624 -0.0579219
21 1 18.5126 -0.564946 -0.68739
22 1 19.0008 -0.539046 0.186789
23 1 19.6518 -0.909131 -0.368563
24 1 20.1033 -0.949672 0.587071
25 1 20.5131 -1.62336 0.0618428
26 1 21.4137 -1.23784 0.361007
27 1 22.3328 -1.22069 -0.191066
28 1 23.3751 -1.18343 -0.506327
29 1 24.1461 -1.54918 -1.10793
30 1 24.9495 -0.986471 -1.31636
31 1 25.8731 -1.14089 -1.17653
32 1 26.8289 -0.845265 -1.21109
33 1 27.7554 -0.481321 -1.2356
34 1 28.6611 -0.00788595 -1.00466
35 1 29.5882 -0.431119 -1.04705
36 1 29.5404 0.222051 -0.414807
37 1 30.2364 0.40429 0.174618
38 1 30.6169 0.199927 -0.656742
39 1 31.2386 0.644054 -0.148796
40 1 32.1921 0.932297 -0.0729911
41 1 33.1284 0.816953 -0.318642
42 1 34.0602 0.711021 0.101894
43 1 34.8667 0.805386 0.775244
44 1 35.5687 1.32563 1.08545
45 1 36.4706 1.50796 1.15769
46 1 36.4315 0.45811 1.37939
47 1 36.1048 -0.374996 1.87305
48 1 35.4842 0.463996 1.76181
49 1 35.9266 1.10498 2.34459
50 1 35.9082 0.254997 2.85333
ITEM: TIMESTEP
2000
ITEM: NUMBER OF ATOMS
50
ITEM: BOX BOUNDS pp pp pp
-5.0000000000000000e+01 5.0000000000000000e+01
-5.0000000000000000e+01 5.0000000000000000e+01
-5.0000000000000000e+01 5.0000000000000000e+01
ITEM: ATOMS id type x y z
1 1 20.745 0.944706 -1.47337
2 1 21.7269 1.20859 -1.36496
3 1 21.7527 1.59909 -0.641133
4 1 21.8126 1.31161 0.4604
5 1 21.0988 0.632905 0.750069
6 1 20.7331 -0.109749 1.1144
7 1 20.2893 0.200501 0.188347
8 1 19.9406 0.851473 0.144759
9 1 20.5022 1.44454 -0.0484328
10 1 21.0672 0.533553 -0.347275
11 1 20.8577 -0.380614 -0.751706
12 1 20.1067 -0.226803 -0.809179
13 1 20.1705 -1.03116 -0.22208
14 1 20.055 -1.37862 0.6721
15 1 20.6139 -2.25384 0.781455
16 1 20.1379 -2.11397 -0.0784318
17 1 21.1941 -1.96985 -0.225777
18 1 21.0848 -1.11838 0.171734
19 1 21.591 -0.210839 0.274883
20 1 22.0907 -1.02194 -0.136185
21 1 21.6147 -1.19313 -0.880623
22 1 21.5376 -0.723154 -1.60243
23 1 20.8564 -0.139772 -2.3941
24 1 21.4791 0.463035 -2.92733
25 1 22.4964 0.28474 -2.75613
26 1 22.7203 0.933894 -2.10266
27 1 23.0707 0.169194 -1.71758
28 1 22.6525 -0.574177 -1.43736
29 1 21.9815 0.203113 -1.81811
30 1 21.8863 -0.238582 -0.804026
31 1 22.0662 0.600077 -0.469384
32 1 23.0082 0.281384 -0.587167
33 1 23.0603 1.14454 -0.965481
34 1 22.5774 1.52605 -0.0447625
35 1 22.6559 0.669585 0.589217
36 1 22.6079 -0.393547 0.5105
37 1 22.8131 -1.4168 0.586966
38 1 23.0909 -0.915423 -0.338346
39 1 23.9144 -0.714241 0.473063
40 1 23.3756 -1.08763 1.35533
41 1 22.9241 -1.0981 2.19834
42 1 23.6731 -1.69468 2.8753
43 1 23.835 -0.677947 2.60186
44 1 24.14 -0.323622 1.62068
45 1 23.7203 0.320966 0.947782
46 1 23.4944 1.4531 1.10776
47 1 24.3103 0.983711 1.59108
48 1 23.2574 0.996975 2.12094
49 1 22.9821 1.83895 2.30015
50 1 23.1273 2.41028 1.50692
ITEM: TIMESTEP
3000
ITEM: NUMBER OF ATOMS
50
ITEM: BOX BOUNDS pp pp pp
-5.0000000000000000e+01 5.0000000000000000e+01
-5.0000000000000000e+01 5.0000000000000000e+01
-5.0000000000000000e+01 5.0000000000000000e+01
ITEM: ATOMS id type x y z
1 1 22.9166 -0.110414 0.454662
2 1 22.5465 -0.157996 -0.525776
3 1 22.671 0.591791 -1.24167
4 1 21.9041 0.951479 -0.569492
5 1 21.5459 0.2325 -1.01776
6 1 20.6729 0.0571926 -0.827541
7 1 20.5191 0.663579 -1.31061
8 1 20.7741 -0.117269 -2.12775
9 1 21.2207 -0.648297 -2.7115
10 1 22.129 -0.51455 -3.23763
11 1 21.9093 -0.12011 -2.21558
12 1 22.2955 -0.439013 -1.58774
13 1 21.3195 -0.693597 -1.39065
14 1 21.8715 -1.32324 -2.02779
15 1 22.0197 -2.22206 -1.42414
16 1 22.7964 -1.91836 -1.97856
17 1 22.9771 -0.932242 -1.99413
18 1 23.4366 -0.0154127 -1.5984
19 1 24.2209 0.613028 -1.40711
20 1 23.9365 0.503142 -0.532303
21 1 24.4635 -0.396687 -0.896214
22 1 24.7421 0.0530297 0.216758
23 1 23.9474 -0.606269 0.10521
24 1 23.9795 -1.01303 1.06795
25 1 22.9179 -1.10298 1.16639
26 1 22.7122 -1.6202 1.9239
27 1 23.0588 -2.05816 1.29118
28 1 22.3961 -1.93482 0.699202
29 1 23.1228 -2.19052 -0.0173933
30 1 22.9157 -1.1318 0.117413
31 1 21.8906 -0.726203 0.454788
32 1 21.5373 0.260641 0.560273
33 1 21.5886 1.19235 0.413779
34 1 21.8802 1.71336 1.25333
35 1 22.2935 0.868828 1.49728
36 1 22.3681 0.272798 2.15881
37 1 22.1839 -0.317151 1.46419
38 1 21.9318 -0.817545 1.86184
39 1 21.1184 -0.625142 2.2011
40 1 21.0922 0.157814 1.5442
41 1 20.6976 0.960888 1.16071
42 1 20.1846 1.2803 0.371755
43 1 20.8803 0.864468 -0.309386
44 1 20.9382 1.57027 -0.713472
45 1 20.8449 1.85757 -0.0840226
46 1 20.803 2.32358 0.635361
47 1 20.7352 2.44837 1.66502
48 1 20.1002 2.26776 2.37665
49 1 20.6015 1.42185 2.27855
50 1 20.891 0.626465 2.80634
ITEM: TIMESTEP
4000
ITEM: NUMBER OF ATOMS
50
ITEM: BOX BOUNDS pp pp pp
-5.0000000000000000e+01 5.0000000000000000e+01
-5.0000000000000000e+01 5.0000000000000000e+01
-5.0000000000000000e+01 5.0000000000000000e+01
ITEM: ATOMS id type x y z
1 1 22.8352 1.26854 1.57709
2 1 22.4688 0.947012 0.551964
3 1 23.2208 1.48293 0.0573144
4 1 23.1151 0.479386 -0.152343
5 1 23.2793 0.370196 -1.03333
6 1 24.2604 0.300314 -0.35193
7 1 24.2688 0.995761 -0.77343
8 1 24.2486 1.79265 -0.731996
9 1 25.0269 2.35136 -0.131016
10 1 24.3184 2.96235 -0.292189
11 1 23.2585 2.52078 0.146181
12 1 23.6049 2.15969 0.788683
13 1 24.3626 1.56297 0.371626
14 1 24.1712 0.752642 0.669665
15 1 23.4241 0.267067 0.778559
16 1 22.6447 0.194304 1.54981
17 1 22.2762 -0.898751 1.48097
18 1 22.1598 -1.83395 0.914677
19 1 21.8327 -2.72446 1.34143
20 1 20.9124 -2.30502 1.80267
21 1 20.608 -2.7315 1.2342
22 1 20.7689 -2.20115 0.471623
23 1 20.9943 -2.8235 -0.272737
24 1 21.763 -2.50607 0.173264
25 1 21.2906 -1.77114 -0.540888
26 1 20.4124 -1.58252 -0.437725
27 1 20.5058 -0.976056 0.280615
28 1 21.4427 -1.06824 0.666387
29 1 21.3943 -0.451311 1.27674
30 1 21.2884 0.106388 1.78445
31 1 21.6865 0.955822 1.44442
32 1 20.9838 1.64916 1.65243
33 1 20.8195 1.13546 0.772588
34 1 21.201 0.761388 -0.153103
35 1 20.2809 0.491399 -0.737645
36 1 20.751 -0.228855 -0.959238
37 1 21.4745 -0.378107 -0.119256
38 1 22.0965 -0.269729 0.515259
39 1 22.216 -1.20879 0.0180403
40 1 22.7649 -0.483602 -0.384432
41 1 21.8993 -0.430544 -1.1874
42 1 22.0241 0.379647 -0.996973
43 1 22.0917 1.12094 -0.421459
44 1 21.4342 1.63884 -0.657026
45 1 20.8771 1.32485 -1.48134
46 1 20.4876 0.562328 -1.75252
47 1 20.5213 -0.163772 -2.10294
48 1 20.2602 -1.27035 -2.15985
49 1 21.206 -1.4114 -1.81078
50 1 21.2661 -0.815366 -2.6791
ITEM: TIMESTEP
5000
ITEM: NUMBER OF ATOMS
50
ITEM: BOX BOUNDS pp pp pp
-5.0000000000000000e+01 5.0000000000000000e+01
-5.0000000000000000e+01 5.0000000000000000e+01
-5.0000000000000000e+01 5.0000000000000000e+01
ITEM: ATOMS id type x y z
1 1 22.2014 1.92513 -0.998147
2 1 22.7159 2.00131 0.0638944
3 1 23.6197 2.05772 0.688156
4 1 23.8499 1.54252 -0.388697
5 1 23.609 0.724494 -0.176928
6 1 23.4724 0.887863 0.722018
7 1 24.5294 1.05126 0.692686
8 1 23.9969 0.247936 1.31408
9 1 23.4649 1.24151 1.77734
10 1 22.8702 0.427765 1.84346
11 1 22.1289 -0.318857 2.00422
12 1 22.6728 -0.778477 1.65945
13 1 22.6435 -1.20622 0.826324
14 1 22.4159 -0.225611 0.827194
15 1 22.3151 0.605561 0.480157
16 1 21.3791 0.0513459 0.790052
17 1 20.8183 -0.776195 0.596298
18 1 20.1724 -0.228939 1.07205
19 1 19.5888 -0.622866 0.474319
20 1 19.1271 -0.542692 -0.436234
21 1 18.9837 0.338794 -0.478953
22 1 18.5911 -0.325418 -1.21923
23 1 19.4294 -1.06421 -1.65037
24 1 20.2731 -1.58715 -1.5959
25 1 21.1565 -0.984492 -1.48666
26 1 21.8353 -0.955146 -0.691082
27 1 21.0373 -0.465051 -0.492404
28 1 20.0777 -0.646647 -0.762449
29 1 19.7255 -0.0723079 -1.55822
30 1 19.1877 0.443259 -2.06517
31 1 19.1039 0.971834 -1.3175
32 1 20.0379 1.38379 -1.27818
33 1 20.5129 0.654201 -0.917673
34 1 19.9841 0.98663 -0.236334
35 1 20.3523 0.192564 0.104187
36 1 21.0819 0.671221 -0.0367548
37 1 21.6329 0.72843 -0.86274
38 1 22.7455 0.916079 -0.801513
39 1 22.5297 0.00660069 -0.609728
40 1 23.1332 -0.37349 -0.0723608
41 1 23.7159 -0.0964647 -0.826897
42 1 24.5764 -0.00199298 0.0202288
43 1 24.3487 -1.01989 -0.164837
44 1 23.695 -1.23698 -0.675082
45 1 23.582 -1.66932 0.298737
46 1 23.5634 -0.618216 0.82271
47 1 24.5026 -0.57401 0.880633
48 1 25.3197 -1.23983 0.590226
49 1 24.981 -1.64826 1.48562
50 1 25.2122 -0.779075 1.766
ITEM: TIMESTEP
6000
ITEM: NUMBER OF ATOMS
50
ITEM: BOX BOUNDS pp pp pp
-5.0000000000000000e+01 5.0000000000000000e+01
-5.0000000000000000e+01 5.0000000000000000e+01
-5.0000000000000000e+01 5.0000000000000000e+01
ITEM: ATOMS id type x y z
1 1 21.2658 2.26679 0.133972
2 1 20.9703 3.27018 0.458765
3 1 20.5316 2.35578 0.967442
4 1 21.1344 1.71865 0.989308
5 1 22.1358 1.9708 0.938448
6 1 22.2548 1.80958 -0.0558493
7 1 21.5956 1.03479 0.250656
8 1 20.5797 1.00503 -0.0402164
9 1 21.0755 0.231924 -0.465762
10 1 20.8909 0.129224 0.472992
11 1 20.3186 0.996445 1.00886
12 1 21.0978 0.816246 1.46751
13 1 21.012 -0.0500388 1.60245
14 1 20.0929 -0.534115 1.27841
15 1 19.895 0.105502 0.477626
16 1 19.7173 -0.82903 -0.108881
17 1 20.226 -1.67519 -0.387606
18 1 20.6974 -2.33785 -1.01492
19 1 21.2702 -2.88144 -1.58471
20 1 21.9337 -2.11748 -2.04454
21 1 21.5508 -1.21739 -1.91515
22 1 22.0306 -0.38345 -2.19994
23 1 21.2412 -0.23459 -1.96188
24 1 21.7044 0.465855 -1.58531
25 1 22.3317 0.568002 -2.0248
26 1 23.1761 1.24976 -1.87728
27 1 23.8631 0.413218 -1.93951
28 1 23.1645 -0.232985 -2.09623
29 1 23.009 -0.732456 -1.27398
30 1 23.4865 -0.241844 -0.605983
31 1 23.506 -0.550799 0.255048
32 1 24.391 -0.316258 0.219942
33 1 24.2098 0.569897 0.388698
34 1 23.8849 0.714532 -0.642415
35 1 22.8853 0.377426 -1.15997
36 1 22.4111 1.03305 -0.900332
37 1 22.1483 0.160636 -0.484527
38 1 23.0102 0.402464 -0.0186341
39 1 22.4282 0.224738 0.964675
40 1 23.4639 0.0831587 1.14578
41 1 23.2934 -0.994089 1.26355
42 1 23.8934 -1.49557 0.549256
43 1 22.8535 -1.30852 0.122327
44 1 21.9668 -0.684045 0.282505
45 1 21.4143 -0.849544 0.938097
46 1 22.3302 -0.954959 1.25438
47 1 22.4716 -1.54848 1.80218
48 1 22.9782 -0.86018 2.32112
49 1 22.691 -0.288392 1.97527
50 1 22.0155 -0.654973 2.85917
ITEM: TIMESTEP
7000
ITEM: NUMBER OF ATOMS
50
ITEM: BOX BOUNDS pp pp pp
-5.0000000000000000e+01 5.0000000000000000e+01
-5.0000000000000000e+01 5.0000000000000000e+01
-5.0000000000000000e+01 5.0000000000000000e+01
ITEM: ATOMS id type x y z
1 1 20.287 -0.204068 -2.34253
2 1 21.0648 0.209427 -2.66025
3 1 20.9456 1.44692 -2.62279
4 1 19.7507 1.41121 -2.31517
5 1 19.7819 0.771311 -1.58142
6 1 20.5868 1.15935 -1.63518
7 1 21.1231 1.39729 -0.704457
8 1 21.8942 0.980824 -0.859566
9 1 22.5133 0.447277 -1.3764
10 1 22.746 1.03045 -2.03867
11 1 22.0275 0.322745 -2.39416
12 1 21.5218 0.665039 -1.75092
13 1 21.4414 0.0615597 -1.15435
14 1 20.5497 0.138639 -1.4405
15 1 20.1574 -0.753306 -1.23447
16 1 20.617 -1.10671 -1.99704
17 1 21.568 -0.807807 -2.1347
18 1 21.5159 -1.5034 -2.78355
19 1 22.3896 -1.44301 -2.15819
20 1 22.7752 -0.335428 -2.0062
21 1 22.8634 -0.692714 -0.808882
22 1 23.426 -0.184271 -1.19303
23 1 24.2339 0.322441 -0.925895
24 1 23.5044 0.329644 -0.106135
25 1 23.5966 0.974056 0.450446
26 1 22.8759 0.619419 0.987606
27 1 22.7041 -0.12138 0.921718
28 1 23.4039 -0.308841 1.57323
29 1 23.2698 -1.31313 1.40923
30 1 22.8225 -0.750709 2.10428
31 1 23.6511 -0.955588 2.47523
32 1 24.3274 -0.115921 2.53364
33 1 23.8139 -0.100971 3.2402
34 1 23.6903 0.786131 3.96732
35 1 23.3265 0.947947 3.04804
36 1 22.714 0.394465 2.92838
37 1 22.2535 -0.358354 3.35189
38 1 21.4999 0.218036 3.443
39 1 21.8229 0.660009 2.50332
40 1 21.9181 0.102422 1.75991
41 1 21.4135 -0.256416 0.889992
42 1 21.2353 -0.777192 1.79543
43 1 21.9948 -1.38348 1.59805
44 1 22.304 -1.11999 0.821295
45 1 21.8422 -0.552979 -0.0119586
46 1 21.4802 -1.2088 -0.348207
47 1 20.8923 -0.446747 -0.483187
48 1 20.5937 0.569616 -0.51582
49 1 21.3497 0.373584 -0.12862
50 1 22.4195 0.461403 -0.0900161
ITEM: TIMESTEP
8000
ITEM: NUMBER OF ATOMS
50
ITEM: BOX BOUNDS pp pp pp
-5.0000000000000000e+01 5.0000000000000000e+01
-5.0000000000000000e+01 5.0000000000000000e+01
-5.0000000000000000e+01 5.0000000000000000e+01
ITEM: ATOMS id type x y z
1 1 23.4963 0.0573799 -2.58247
2 1 23.3103 -0.545699 -3.24716
3 1 22.4892 -0.00759364 -2.82836
4 1 22.3627 0.541459 -1.90327
5 1 21.4328 0.964773 -1.93976
6 1 22.1658 1.55502 -1.52263
7 1 22.836 1.16889 -1.08581
8 1 22.492 1.61922 -0.354174
9 1 22.995 2.29759 -0.75777
10 1 23.4949 1.82738 -0.0269883
11 1 24.0229 1.01447 -0.392347
12 1 24.0915 1.51612 -1.11291
13 1 24.3129 0.651126 -1.35116
14 1 23.5481 0.0995284 -0.972072
15 1 23.9497 -0.706022 -0.508052
16 1 23.0468 -0.979497 -0.93753
17 1 23.0307 -1.48704 -0.176873
18 1 22.5728 -1.04704 0.625662
19 1 21.9268 -1.66791 0.256694
20 1 21.2814 -2.13591 0.744467
21 1 21.7131 -2.00053 1.53564
22 1 22.1973 -0.99205 1.61497
23 1 22.5138 -0.0375023 1.06048
24 1 22.2853 0.877298 0.577898
25 1 22.9474 0.480278 -0.0461568
26 1 23.2082 0.948074 0.84892
27 1 22.7766 0.824743 1.65771
28 1 23.3017 1.05352 2.28043
29 1 22.3548 1.52149 2.57444
30 1 22.2641 0.631122 2.55203
31 1 21.5606 0.395554 2.22179
32 1 21.5915 0.230004 1.36635
33 1 21.4318 -0.586574 0.92551
34 1 20.5921 -0.395014 1.58323
35 1 20.6114 0.580062 1.94186
36 1 20.1596 0.898166 1.24687
37 1 19.6779 0.171443 1.1048
38 1 19.3549 -0.764922 0.813342
39 1 18.9255 -1.59716 0.15243
40 1 19.6852 -1.2875 -0.418115
41 1 20.6771 -1.97336 -0.266518
42 1 20.6775 -1.47954 0.286425
43 1 20.67 -0.437742 0.213945
44 1 21.4406 -0.696223 -0.0829098
45 1 21.4089 0.287712 0.0263818
46 1 22.2316 -0.163247 -0.600162
47 1 22.0003 -1.13697 -1.06845
48 1 22.1993 -0.702603 -1.76608
49 1 21.3589 -0.128976 -1.39871
50 1 21.8245 0.744212 -0.86584
ITEM: TIMESTEP
9000
ITEM: NUMBER OF ATOMS
50
ITEM: BOX BOUNDS pp pp pp
-5.0000000000000000e+01 5.0000000000000000e+01
-5.0000000000000000e+01 5.0000000000000000e+01
-5.0000000000000000e+01 5.0000000000000000e+01
ITEM: ATOMS id type x y z
1 1 24.3328 -0.25848 0.371184
2 1 24.8318 -0.461098 1.17655
3 1 24.5727 0.461506 1.37565
4 1 23.6472 1.02402 1.17674
5 1 22.758 0.988429 1.6374
6 1 22.9525 1.95086 1.47583
7 1 22.0855 1.83069 1.92346
8 1 21.8627 1.52836 1.13211
9 1 21.5994 0.511934 0.553166
10 1 21.7365 0.0285569 1.25356
11 1 22.5375 -0.21802 1.91915
12 1 23.2544 -1.1042 1.99764
13 1 23.535 -0.689083 1.1702
14 1 22.9301 -1.51317 1.12642
15 1 22.1853 -1.03156 1.04963
16 1 21.7372 -1.79422 0.951043
17 1 20.7863 -1.51473 0.702327
18 1 20.3138 -0.956107 1.40843
19 1 21.0814 -0.765907 1.38315
20 1 21.4367 -0.537307 0.430666
21 1 22.271 -0.548479 -0.172899
22 1 22.6768 -0.112173 0.586372
23 1 22.7594 0.814643 0.581129
24 1 22.09 1.26983 -0.0149289
25 1 22.8167 1.87017 0.274044
26 1 22.3488 2.57866 0.639874
27 1 22.0143 2.26067 -0.398647
28 1 21.1642 1.86105 0.348777
29 1 20.2246 2.04956 0.165345
30 1 20.8234 1.2712 -0.293732
31 1 21.3087 1.27407 -1.08654
32 1 20.7286 0.820935 -1.51997
33 1 21.2237 0.136339 -1.53031
34 1 21.4289 -0.650538 -0.836337
35 1 20.9299 0.225787 -0.425966
36 1 19.9189 0.460315 -0.559836
37 1 20.0481 -0.227018 -1.20795
38 1 20.1952 0.0357261 -2.1119
39 1 20.8312 -0.886768 -1.84936
40 1 21.2538 -1.54546 -1.46648
41 1 21.8065 -2.35823 -1.46794
42 1 22.5452 -3.05194 -1.92854
43 1 22.2664 -2.29426 -2.77922
44 1 21.8603 -1.40362 -2.43544
45 1 22.579 -1.01172 -1.78563
46 1 22.8341 -0.882927 -0.920249
47 1 23.3616 -0.42559 -0.161852
48 1 23.3034 0.134956 -0.935251
49 1 22.823 0.480464 -0.347602
50 1 21.8875 0.373873 -0.573266
ITEM: TIMESTEP
10000
ITEM: NUMBER OF ATOMS
50
ITEM: BOX BOUNDS pp pp pp
-5.0000000000000000e+01 5.0000000000000000e+01
-5.0000000000000000e+01 5.0000000000000000e+01
-5.0000000000000000e+01 5.0000000000000000e+01
ITEM: ATOMS id type x y z
1 1 18.9526 1.08884 3.14467
2 1 19.6232 0.399876 3.47585
3 1 19.6199 -0.182049 2.64115
4 1 20.2482 -0.395959 2.26358
5 1 20.3363 0.623356 2.16764
6 1 20.0456 1.41299 1.72175
7 1 20.2986 1.63293 0.733347
8 1 19.4998 0.853136 0.662452
9 1 20.2634 0.540227 0.837972
10 1 20.94 0.00171474 1.4613
11 1 21.1952 -0.502994 0.689889
12 1 21.7171 -1.20909 0.680194
13 1 22.125 -1.18957 -0.250612
14 1 21.4104 -0.47408 -0.49201
15 1 20.886 -0.706278 -1.26828
16 1 20.1739 -1.23591 -1.79078
17 1 19.6482 -0.929682 -1.00453
18 1 20.2107 -0.655476 -0.369575
19 1 20.5073 0.364414 -0.157501
20 1 21.0533 0.360506 -0.8829
21 1 21.9312 0.665046 -0.93897
22 1 22.4348 1.01805 -0.0614268
23 1 22.72 0.200246 0.0853865
24 1 22.9723 0.953468 0.89781
25 1 22.7357 1.62999 1.57259
26 1 23.7059 1.60099 1.11703
27 1 22.7274 1.86107 0.525315
28 1 21.8788 2.18768 -0.0768381
29 1 22.6781 1.88237 -0.643561
30 1 23.1303 1.81258 -1.44505
31 1 23.6468 1.26019 -0.950808
32 1 23.4729 0.933834 -0.133948
33 1 23.0334 0.515676 -1.01946
34 1 22.516 -0.357162 -0.845623
35 1 21.9742 -0.250246 -1.63903
36 1 22.8402 -0.734962 -1.97162
37 1 23.1695 -1.62874 -1.67606
38 1 22.2287 -1.26473 -1.24704
39 1 21.4587 -1.75217 -0.843619
40 1 22.2701 -2.19859 -0.167708
41 1 23.0019 -1.80181 -0.683037
42 1 23.9018 -1.40369 -0.969073
43 1 24.489 -2.08107 -1.48775
44 1 24.9801 -1.22448 -1.03288
45 1 24.3727 -0.281129 -1.19124
46 1 23.9686 0.108163 -0.573546
47 1 23.4058 -0.693357 -0.490211
48 1 24.1451 -0.714192 0.225535
49 1 23.5771 -0.343391 0.705529
50 1 24.3782 0.303473 0.695684
ITEM: TIMESTEP
11000
ITEM: NUMBER OF ATOMS
50
ITEM: BOX BOUNDS pp pp pp
-5.0000000000000000e+01 5.0000000000000000e+01
-5.0000000000000000e+01 5.0000000000000000e+01
-5.0000000000000000e+01 5.0000000000000000e+01
ITEM: ATOMS id type x y z
1 1 19.8765 0.768123 -1.52848
2 1 19.775 0.469638 -2.38817
3 1 20.3145 -0.213157 -1.90833
4 1 21.3404 -0.329754 -1.95414
5 1 21.0323 0.452055 -1.43409
6 1 20.9894 -0.205998 -0.817868
7 1 20.0512 0.213556 -0.772616
8 1 20.481 0.945761 -0.426688
9 1 20.8457 0.7682 0.26259
10 1 20.233 0.470142 1.15658
11 1 20.2301 -0.0794982 0.336256
12 1 20.8504 -0.696845 0.0309605
13 1 21.3496 -1.12971 0.507325
14 1 21.9697 -0.548746 -0.301337
15 1 21.9373 -1.04292 -1.06129
16 1 21.9529 -0.0941063 -1.1315
17 1 22.5737 -0.322067 -2.0279
18 1 22.1868 0.595053 -2.19849
19 1 21.88 1.05266 -1.45063
20 1 22.5756 0.904319 -1.06675
21 1 22.508 0.51152 -0.279097
22 1 21.5872 0.603083 -0.451413
23 1 21.561 1.73769 -0.443304
24 1 22.603 1.94578 -0.155379
25 1 23.0683 1.41802 0.797235
26 1 22.3781 2.12827 1.34009
27 1 21.6026 2.01465 0.784985
28 1 21.1912 1.54834 1.43663
29 1 22.0515 1.40727 2.19078
30 1 22.874 1.76688 2.3323
31 1 22.8941 0.663862 2.14139
32 1 22.0713 0.194816 1.80956
33 1 21.5349 0.429277 1.06428
34 1 22.018 0.989524 0.799472
35 1 22.6773 0.192572 0.697721
36 1 23.5967 -0.0787344 0.108948
37 1 23.3312 -0.0112887 -1.02156
38 1 23.0531 -0.769339 -0.59096
39 1 23.5927 -1.35137 -0.900756
40 1 24.2028 -0.96504 -0.0726888
41 1 23.684 -1.81389 0.178949
42 1 23.0509 -2.17878 -0.442128
43 1 22.6302 -1.3888 0.165666
44 1 22.394 -0.850273 0.969124
45 1 23.2671 -0.596172 1.65043
46 1 23.6118 -0.909009 0.841769
47 1 23.5185 -1.62748 1.38943
48 1 23.2302 -2.45554 1.44604
49 1 22.4057 -2.47826 0.578309
50 1 21.8654 -2.05429 -0.191263
ITEM: TIMESTEP
12000
ITEM: NUMBER OF ATOMS
50
ITEM: BOX BOUNDS pp pp pp
-5.0000000000000000e+01 5.0000000000000000e+01
-5.0000000000000000e+01 5.0000000000000000e+01
-5.0000000000000000e+01 5.0000000000000000e+01
ITEM: ATOMS id type x y z
1 1 21.938 2.98399 0.321859
2 1 22.5901 3.00119 -0.231865
3 1 22.1798 2.25075 -0.6987
4 1 22.3153 1.2862 -0.421224
5 1 22.2971 1.06615 -1.3795
6 1 22.7776 1.90554 -1.98484
7 1 23.2684 1.27864 -1.11897
8 1 23.2771 0.366991 -1.54585
9 1 22.5804 0.269036 -2.17671
10 1 22.9349 -0.555471 -1.55295
11 1 22.2561 -1.38234 -1.13123
12 1 22.8179 -0.806261 -0.351399
13 1 22.5519 -1.48915 0.0932177
14 1 22.6333 -2.19655 -0.656652
15 1 23.5241 -1.73708 -0.47109
16 1 24.1738 -1.0043 -0.350463
17 1 23.9794 -0.966606 -1.34734
18 1 24.502 -0.0331151 -1.15533
19 1 24.318 0.0128035 -0.288514
20 1 23.4011 0.205307 -0.562168
21 1 23.4756 0.0501264 0.330687
22 1 22.5095 0.397631 0.0557151
23 1 22.4022 0.0383701 -0.718028
24 1 21.3582 0.515383 -0.269214
25 1 21.226 1.36956 -0.8845
26 1 20.2101 1.39957 -1.0175
27 1 20.5189 1.41991 -0.219701
28 1 20.1185 0.759235 0.014735
29 1 19.479 0.805755 0.519492
30 1 20.0484 0.848551 1.25437
31 1 20.4706 1.60958 1.27281
32 1 21.086 0.920713 1.90833
33 1 20.9822 0.550693 0.858039
34 1 21.8224 1.03654 0.563712
35 1 21.8943 0.176452 1.21471
36 1 22.5954 -0.54731 0.752951
37 1 23.3989 -1.0574 0.494818
38 1 23.0246 -1.34132 1.38844
39 1 22.7303 -0.337585 1.71451
40 1 22.0465 -0.86066 1.93286
41 1 21.6441 -0.81854 1.18649
42 1 20.5827 -1.04612 1.34518
43 1 20.1775 -1.24921 0.577884
44 1 20.8011 -0.392699 0.329542
45 1 21.7636 -0.290569 0.15576
46 1 21.5708 -0.852508 -0.366961
47 1 20.8715 -1.56805 -0.659877
48 1 21.2548 -1.79066 0.307121
49 1 21.1249 -2.29003 1.01968
50 1 20.9945 -1.91114 1.94766
ITEM: TIMESTEP
13000
ITEM: NUMBER OF ATOMS
50
ITEM: BOX BOUNDS pp pp pp
-5.0000000000000000e+01 5.0000000000000000e+01
-5.0000000000000000e+01 5.0000000000000000e+01
-5.0000000000000000e+01 5.0000000000000000e+01
ITEM: ATOMS id type x y z
1 1 23.3956 2.89446 -1.00327
2 1 23.153 1.82337 -0.915716
3 1 22.8719 1.6425 0.191284
4 1 21.9918 1.31151 0.400394
5 1 22.0734 0.445032 0.164026
6 1 22.992 0.703864 0.0692086
7 1 23.8799 0.350337 0.188828
8 1 23.8292 -0.553871 0.0482555
9 1 23.1462 -1.35514 0.352382
10 1 22.263 -1.55979 -0.136507
11 1 21.9443 -0.815384 -0.155259
12 1 21.0717 -0.607515 -0.250848
13 1 21.2809 -0.199993 0.607502
14 1 21.1343 -0.989482 0.786275
15 1 21.354 -1.12841 1.74299
16 1 21.9338 -1.83678 1.09356
17 1 22.7425 -1.24389 1.62864
18 1 23.5187 -1.04581 2.13915
19 1 23.7277 -0.491182 1.22382
20 1 23.6473 0.616579 1.0939
21 1 23.0403 0.429775 1.93756
22 1 22.4688 0.241209 1.32002
23 1 22.1243 -0.634204 1.07169
24 1 22.7858 -0.301114 0.305554
25 1 22.6574 -0.0756229 -0.761667
26 1 22.5438 0.196946 -1.54683
27 1 22.4884 0.111271 -2.53123
28 1 22.0189 -0.574335 -2.09079
29 1 21.3011 -0.52874 -1.68018
30 1 21.5094 0.14613 -0.844105
31 1 21.8295 1.16 -0.660462
32 1 21.0957 1.73259 -0.0795415
33 1 20.1145 1.7865 -0.356787
34 1 20.7819 1.20878 -0.798944
35 1 20.5151 0.473232 -1.185
36 1 20.5676 0.288096 -0.215972
37 1 21.0438 0.764793 0.415288
38 1 20.293 0.271764 0.99437
39 1 19.5636 0.452613 0.36896
40 1 19.2811 -0.40056 0.891393
41 1 20.2083 -0.732239 0.387789
42 1 20.2565 -1.49279 1.11018
43 1 20.7501 -1.69822 0.170982
44 1 21.0475 -1.63875 -0.85175
45 1 22.1733 -1.28605 -1.12169
46 1 23.1152 -1.23897 -0.728847
47 1 23.5646 -0.375161 -1.45222
48 1 23.607 0.629942 -1.15618
49 1 23.9248 1.29255 -0.549089
50 1 23.8779 1.83016 0.368878
ITEM: TIMESTEP
14000
ITEM: NUMBER OF ATOMS
50
ITEM: BOX BOUNDS pp pp pp
-5.0000000000000000e+01 5.0000000000000000e+01
-5.0000000000000000e+01 5.0000000000000000e+01
-5.0000000000000000e+01 5.0000000000000000e+01
ITEM: ATOMS id type x y z
1 1 23.0268 1.33639 -0.987493
2 1 23.1221 1.25755 0.0138739
3 1 22.6598 0.870582 0.815753
4 1 22.2932 1.55698 1.05578
5 1 21.9358 1.59593 0.195929
6 1 21.5577 0.793512 0.762507
7 1 22.1882 0.38582 1.59822
8 1 22.4247 0.251378 2.45889
9 1 22.8604 -0.649794 2.11936
10 1 23.1792 -1.59374 1.58069
11 1 22.2331 -1.83951 1.22953
12 1 22.4947 -1.82407 0.188524
13 1 22.0405 -1.07513 -0.306551
14 1 21.3821 -1.22435 -0.811048
15 1 20.3716 -1.6217 -0.601809
16 1 19.9437 -0.89966 -0.465791
17 1 20.155 -1.15546 0.389402
18 1 19.854 -2.21389 0.405814
19 1 19.0103 -1.42938 0.95604
20 1 19.4445 -0.45146 0.484634
21 1 20.654 -0.0218138 0.154466
22 1 21.195 -0.745247 0.324921
23 1 20.9435 -0.989595 1.17102
24 1 21.5608 -0.91397 1.71618
25 1 22.2067 -0.540428 1.19394
26 1 22.0685 -0.109342 0.232088
27 1 22.2036 0.829631 -0.325501
28 1 22.8253 0.041598 -0.585211
29 1 22.5434 0.45318 -1.52457
30 1 22.1294 1.13214 -1.78026
31 1 22.9927 1.09021 -2.38943
32 1 23.3765 1.89349 -2.09726
33 1 22.6869 2.19069 -1.54882
34 1 22.3759 2.09571 -2.54046
35 1 21.6804 1.9854 -1.91521
36 1 20.9395 1.48372 -1.54968
37 1 21.2252 0.373493 -1.68621
38 1 20.4152 0.228351 -0.96483
39 1 21.1323 0.824996 -0.224983
40 1 21.537 0.00382869 -0.665179
41 1 22.1532 -0.473989 -1.24172
42 1 22.6064 -1.32164 -1.28911
43 1 23.2595 -1.05455 -0.498277
44 1 23.1537 -1.03091 0.549562
45 1 24.0846 -0.852719 0.327592
46 1 24.6132 -0.644769 1.00458
47 1 24.2546 0.141024 0.632925
48 1 23.223 0.0608072 0.915618
49 1 23.2402 0.38999 1.77548
50 1 23.0424 1.41072 1.74608
ITEM: TIMESTEP
15000
ITEM: NUMBER OF ATOMS
50
ITEM: BOX BOUNDS pp pp pp
-5.0000000000000000e+01 5.0000000000000000e+01
-5.0000000000000000e+01 5.0000000000000000e+01
-5.0000000000000000e+01 5.0000000000000000e+01
ITEM: ATOMS id type x y z
1 1 21.4188 1.30782 1.67673
2 1 22.3623 1.18173 1.83903
3 1 22.003 1.9338 1.13692
4 1 21.6135 1.42338 0.551512
5 1 20.895 1.68078 0.149978
6 1 21.3269 2.26127 -0.37127
7 1 21.9442 1.71667 -0.674083
8 1 21.1873 1.38221 -0.921885
9 1 20.6138 0.636319 -0.267882
10 1 20.4393 -0.426173 -0.1205
11 1 19.9678 -1.27415 0.288667
12 1 20.6515 -2.10981 0.290436
13 1 21.1803 -1.48567 0.474233
14 1 21.7749 -2.08508 0.464654
15 1 22.1703 -1.50377 -0.169077
16 1 22.2723 -2.17928 -0.974437
17 1 21.8946 -1.49987 -1.58854
18 1 22.9263 -1.36086 -1.94356
19 1 23.1659 -0.51958 -2.40802
20 1 22.3303 0.0922383 -2.35124
21 1 21.3817 0.378078 -2.37403
22 1 21.6789 0.809145 -1.85658
23 1 21.0607 0.298353 -1.23519
24 1 21.9753 0.565091 -0.716896
25 1 21.6311 0.351 0.0397612
26 1 22.0933 -0.240293 0.414911
27 1 22.6647 0.201936 1.00087
28 1 23.0474 0.165816 -0.115851
29 1 23.7462 -0.569405 -0.552072
30 1 24.3134 0.269629 -1.01036
31 1 24.6855 -0.12388 -0.245157
32 1 23.9458 0.374702 0.236457
33 1 23.4801 0.790065 1.33307
34 1 22.7448 1.07102 0.690595
35 1 22.7996 1.26689 -0.414066
36 1 23.1957 1.69776 -1.03669
37 1 23.5032 0.810799 -1.51719
38 1 23.1062 -0.095587 -1.29738
39 1 22.7638 -0.639939 -0.683174
40 1 22.9917 -0.89184 0.372364
41 1 22.8789 -1.71319 0.954806
42 1 22.9987 -0.937814 1.52954
43 1 22.1868 -0.327417 1.72669
44 1 21.5672 -1.27286 1.87774
45 1 20.694 -1.02055 1.57783
46 1 20.9816 -0.0747051 1.84424
47 1 21.3467 0.300591 1.14482
48 1 20.8376 -0.300042 0.865904
49 1 20.221 0.316871 1.13964
50 1 19.8401 -0.6322 1.22372
ITEM: TIMESTEP
16000
ITEM: NUMBER OF ATOMS
50
ITEM: BOX BOUNDS pp pp pp
-5.0000000000000000e+01 5.0000000000000000e+01
-5.0000000000000000e+01 5.0000000000000000e+01
-5.0000000000000000e+01 5.0000000000000000e+01
ITEM: ATOMS id type x y z
1 1 20.0895 1.28297 0.686858
2 1 20.7936 0.892755 0.256469
3 1 20.9737 0.135446 -0.563195
4 1 21.6565 0.849981 -0.318926
5 1 22.5699 1.2115 0.0323928
6 1 22.9066 0.327826 0.0733439
7 1 23.6289 0.733813 0.46627
8 1 24.1964 1.18838 -0.244531
9 1 24.1761 0.278406 -0.694514
10 1 23.3202 0.954894 -0.722964
11 1 22.3402 0.637779 -1.06838
12 1 21.8899 -0.13336 -0.838477
13 1 21.7622 -1.13703 -0.774748
14 1 22.1011 -1.18674 -1.72648
15 1 22.2974 -2.13282 -1.86746
16 1 22.9868 -1.54555 -1.49944
17 1 23.6833 -1.48895 -2.04935
18 1 23.1363 -0.997389 -2.37386
19 1 23.1545 -0.455378 -1.55189
20 1 23.4833 0.599451 -1.7049
21 1 24.2586 -0.194028 -1.71066
22 1 24.1145 -0.821038 -1.05276
23 1 23.5142 -0.52602 -0.387273
24 1 22.7219 -0.499752 -0.562478
25 1 22.3816 -0.835347 0.507213
26 1 21.7813 -0.0525953 0.341162
27 1 21.6236 0.762184 1.01461
28 1 21.7465 1.38345 1.65458
29 1 20.879 1.58569 1.28467
30 1 21.0957 2.52568 0.765354
31 1 21.4555 1.76324 0.528567
32 1 22.459 1.63314 1.04579
33 1 23.2872 1.48067 1.74752
34 1 23.593 0.820098 2.38096
35 1 23.235 0.246909 1.73002
36 1 22.2489 0.539009 1.91644
37 1 21.9062 -0.431895 1.64766
38 1 21.4709 -1.14486 0.999502
39 1 20.4225 -1.27176 1.0057
40 1 20.3124 -0.620523 1.44591
41 1 20.9048 -0.580408 2.43425
42 1 21.0357 0.45402 2.0071
43 1 20.5334 0.360436 1.12385
44 1 20.6238 -0.271448 0.396871
45 1 21.1403 -1.11491 0.0537909
46 1 20.174 -1.36253 -0.187158
47 1 20.2369 -0.615682 -0.807558
48 1 20.3233 -1.50158 -1.23732
49 1 20.9932 -0.649338 -1.42664
50 1 20.8808 -1.07682 -2.17589
ITEM: TIMESTEP
17000
ITEM: NUMBER OF ATOMS
50
ITEM: BOX BOUNDS pp pp pp
-5.0000000000000000e+01 5.0000000000000000e+01
-5.0000000000000000e+01 5.0000000000000000e+01
-5.0000000000000000e+01 5.0000000000000000e+01
ITEM: ATOMS id type x y z
1 1 21.2559 1.68876 -1.29663
2 1 22.1832 1.92813 -1.54262
3 1 22.6975 1.68915 -0.959051
4 1 23.4824 1.41497 -0.44466
5 1 23.337 0.921159 0.225379
6 1 22.8848 1.75085 0.389187
7 1 22.5721 1.42844 1.3413
8 1 23.5379 1.98656 1.13491
9 1 23.3472 1.34985 2.01758