ITEM: TIMESTEP
0
ITEM: NUMBER OF ATOMS
50
ITEM: BOX BOUNDS pp pp pp
-5.0000000000000000e+01 5.0000000000000000e+01
-5.0000000000000000e+01 5.0000000000000000e+01
-5.0000000000000000e+01 5.0000000000000000e+01
ITEM: ATOMS id type x y z
1 1 -2.38806 0 0
2 1 -1.38896 0 0
3 1 -0.390778 0 0
4 1 0.607324 0 0
5 1 1.60534 0 0
6 1 2.60328 0 0
7 1 3.60114 0 0
8 1 4.59892 0 0
9 1 5.59661 0 0
10 1 6.59422 0 0
11 1 7.59175 0 0
12 1 8.5892 0 0
13 1 9.58657 0 0
14 1 10.5839 0 0
15 1 11.5811 0 0
16 1 12.5782 0 0
17 1 13.5752 0 0
18 1 14.5722 0 0
19 1 15.5691 0 0
20 1 16.5659 0 0
21 1 17.5625 0 0
22 1 18.5598 0 0
23 1 19.557 0 0
24 1 20.5543 0 0
25 1 21.5515 0 0
26 1 22.5485 0 0
27 1 23.5457 0 0
28 1 24.543 0 0
29 1 25.5402 0 0
30 1 26.5375 0 0
31 1 27.5341 0 0
32 1 28.5309 0 0
33 1 29.5278 0 0
34 1 30.5248 0 0
35 1 31.5218 0 0
36 1 32.5189 0 0
37 1 33.5161 0 0
38 1 34.5134 0 0
39 1 35.5108 0 0
40 1 36.5082 0 0
41 1 37.5058 0 0
42 1 38.5034 0 0
43 1 39.5011 0 0
44 1 40.4989 0 0
45 1 41.4967 0 0
46 1 42.4947 0 0
47 1 43.4927 0 0
48 1 44.4908 0 0
49 1 45.489 0 0
50 1 46.4881 0 0
ITEM: TIMESTEP
1000
ITEM: NUMBER OF ATOMS
50
ITEM: BOX BOUNDS pp pp pp
-5.0000000000000000e+01 5.0000000000000000e+01
-5.0000000000000000e+01 5.0000000000000000e+01
-5.0000000000000000e+01 5.0000000000000000e+01
ITEM: ATOMS id type x y z
1 1 7.60366 0.168882 -0.173997
2 1 7.40169 0.917347 0.394215
3 1 7.69621 0.739701 1.26116
4 1 8.07628 1.57688 0.855629
5 1 9.02875 1.17444 0.95908
6 1 8.41225 0.743284 0.286405
7 1 8.39979 0.832456 -0.723589
8 1 9.04817 1.36217 -0.0721026
9 1 9.84326 0.759804 -0.298252
10 1 10.8075 0.566282 -0.217198
11 1 11.7178 0.121583 -0.574798
12 1 12.474 0.368407 -0.0169069
13 1 12.7419 -0.178881 -0.793723
14 1 13.261 -0.812184 -1.25631
15 1 14.1531 -0.575345 -0.788187
16 1 15.1662 -0.532651 -0.604707
17 1 16.0835 -0.578455 -0.899099
18 1 16.9405 -0.796821 -0.55562
19 1 17.9509 -0.915201 -0.446252
20 1 18.197 0.0644882 -0.18168
21 1 18.8923 -0.499888 -0.552798
22 1 19.1602 -0.567218 0.39641
23 1 19.651 -1.32248 -0.0590025
24 1 20.1952 -1.06799 0.795673
25 1 21.0652 -1.61594 0.677085
26 1 21.6626 -1.38671 -0.190362
27 1 22.6665 -1.65747 -0.230946
28 1 23.5129 -1.25581 -0.615463
29 1 24.2227 -1.73825 -1.09687
30 1 24.9417 -1.13829 -1.3606
31 1 25.9416 -1.19869 -1.20957
32 1 26.9341 -0.942381 -1.37329
33 1 27.816 -0.627365 -1.37756
34 1 28.7018 -0.204166 -1.20492
35 1 29.5576 0.0728256 -0.717803
36 1 30.1177 0.870241 -0.448122
37 1 30.7441 0.684172 0.262897
38 1 31.0294 0.14413 -0.432297
39 1 31.4229 1.1165 -0.461636
40 1 32.2078 0.41351 -0.545629
41 1 32.9659 0.642284 -0.0028981
42 1 33.9033 0.600989 0.0465213
43 1 34.4993 1.09522 0.676757
44 1 35.2598 1.70702 0.866952
45 1 35.9139 0.907543 0.67438
46 1 36.7575 0.305564 0.774756
47 1 36.3513 0.659641 1.65577
48 1 37.1552 0.371107 2.11206
49 1 36.979 0.750039 3.1309
50 1 37.2682 -0.124338 3.65555
ITEM: TIMESTEP
2000
ITEM: NUMBER OF ATOMS
50
ITEM: BOX BOUNDS pp pp pp
-5.0000000000000000e+01 5.0000000000000000e+01
-5.0000000000000000e+01 5.0000000000000000e+01
-5.0000000000000000e+01 5.0000000000000000e+01
ITEM: ATOMS id type x y z
1 1 18.4033 3.00709 1.12409
2 1 18.0023 2.30132 1.68704
3 1 18.4251 1.42044 1.70824
4 1 18.4923 1.07539 0.8114
5 1 18.7332 2.0894 0.611749
6 1 17.7011 2.27244 0.542309
7 1 17.9208 1.47613 -0.0193049
8 1 17.7155 0.620986 -0.295273
9 1 17.6114 -0.0831129 -0.974817
10 1 17.899 -0.446395 -1.84059
11 1 17.545 -1.38285 -2.21575
12 1 18.498 -1.70319 -2.60698
13 1 18.6923 -1.1937 -1.64177
14 1 19.3565 -1.83198 -1.21365
15 1 19.7563 -1.40416 -0.312741
16 1 19.8761 -0.56297 -0.83637
17 1 19.6405 -0.234276 0.0135567
18 1 20.2954 0.460999 0.261667
19 1 20.7108 -0.414462 0.0329562
20 1 20.6315 0.235066 -0.769587
21 1 21.5198 -0.212158 -0.721793
22 1 21.4443 -1.17532 -0.215396
23 1 22.4445 -1.56505 -0.261194
24 1 22.5104 -0.716204 -0.0681003
25 1 22.1476 -0.938706 -1.07605
26 1 21.5319 -1.31294 -1.86243
27 1 22.488 -1.80941 -1.64558
28 1 23.3715 -1.82531 -1.96788
29 1 23.0657 -0.812336 -1.65607
30 1 23.6065 -1.06549 -0.933359
31 1 23.9335 -0.356592 -0.209393
32 1 23.4794 0.176372 -0.89952
33 1 24.0206 -0.324513 -1.64193
34 1 24.9627 -0.57553 -1.6409
35 1 25.6326 -0.25546 -0.934744
36 1 26.277 -0.974663 -0.609664
37 1 25.965 -0.298761 0.18486
38 1 24.8808 -0.275551 0.292211
39 1 24.3224 -0.0018658 1.1824
40 1 25.1873 -0.425159 1.55738
41 1 26.1661 -0.410799 1.28893
42 1 25.903 0.254789 1.9223
43 1 25.497 0.430214 1.03817
44 1 24.6852 1.0793 0.894177
45 1 25.2845 1.80757 0.993762
46 1 25.525 1.44293 1.90475
47 1 24.5835 1.06522 1.91479
48 1 24.8449 0.942024 2.9044
49 1 25.4601 1.66436 2.9996
50 1 25.8524 0.766884 3.2001
ITEM: TIMESTEP
3000
ITEM: NUMBER OF ATOMS
50
ITEM: BOX BOUNDS pp pp pp
-5.0000000000000000e+01 5.0000000000000000e+01
-5.0000000000000000e+01 5.0000000000000000e+01
-5.0000000000000000e+01 5.0000000000000000e+01
ITEM: ATOMS id type x y z
1 1 19.8586 3.61347 -2.23198
2 1 19.8007 3.94305 -1.33401
3 1 20.7511 3.88955 -1.30588
4 1 21.2291 3.07404 -0.910512
5 1 20.7611 2.8221 -0.101402
6 1 20.996 1.74843 0.00517297
7 1 21.0432 1.70311 -0.963386
8 1 21.7955 1.3216 -1.29511
9 1 22.2936 1.922 -0.979486
10 1 22.517 0.986899 -0.453925
11 1 22.9332 0.375664 -1.06889
12 1 22.2151 0.0562596 -1.79789
13 1 22.0918 -0.735139 -1.41406
14 1 21.0749 -0.963062 -1.2936
15 1 20.7594 -1.82459 -1.20853
16 1 20.0562 -1.7581 -1.84517
17 1 19.9027 -2.3966 -1.0487
18 1 20.7791 -2.57931 -0.376525
19 1 21.5478 -2.60868 -0.875165
20 1 21.7575 -1.57133 -0.637084
21 1 22.7255 -1.282 -0.44666
22 1 23.0912 -0.995972 0.537966
23 1 23.6109 -0.256806 0.293091
24 1 23.817 0.61951 0.487479
25 1 24.269 0.230104 -0.283757
26 1 25.218 0.149225 -0.57332
27 1 24.7134 -0.653574 0.0609296
28 1 25.045 0.185827 0.628893
29 1 24.3044 0.130708 1.21932
30 1 24.2085 -0.872736 1.64268
31 1 24.1044 -1.20663 2.67821
32 1 24.4738 -0.276841 2.77931
33 1 23.5283 -0.132778 2.18066
34 1 23.7027 0.807447 1.9183
35 1 22.9221 0.491256 1.60548
36 1 22.3825 -0.247308 1.28871
37 1 21.7373 -0.880713 1.79107
38 1 21.7463 -1.38307 0.876796
39 1 20.9797 -1.97639 0.476013
40 1 20.4153 -1.51954 -0.170216
41 1 20.6213 -0.92011 0.701912
42 1 21.5794 -0.84199 0.0478806
43 1 21.8406 -0.291399 -0.553557
44 1 22.4795 -0.202799 0.143891
45 1 22.5625 0.633324 0.590301
46 1 21.7371 0.469203 0.140474
47 1 21.0105 0.307544 0.780207
48 1 20.1213 0.0291092 0.925176
49 1 20.0477 -0.501835 0.0649
50 1 19.3414 -0.630111 -0.696012
ITEM: TIMESTEP
4000
ITEM: NUMBER OF ATOMS
50
ITEM: BOX BOUNDS pp pp pp
-5.0000000000000000e+01 5.0000000000000000e+01
-5.0000000000000000e+01 5.0000000000000000e+01
-5.0000000000000000e+01 5.0000000000000000e+01
ITEM: ATOMS id type x y z
1 1 23.4475 0.956407 -0.88655
2 1 24.4526 1.0233 -1.3388
3 1 24.0712 1.96716 -1.64518
4 1 23.3959 1.39115 -1.98464
5 1 22.7515 0.736781 -2.58346
6 1 22.4868 1.62293 -2.8876
7 1 21.6588 1.68561 -2.68566
8 1 22.1413 1.09765 -1.85977
9 1 21.7213 1.70223 -1.10883
10 1 22.3942 1.09391 -0.564607
11 1 22.3022 0.220112 -0.927542
12 1 21.6233 0.098104 -1.42474
13 1 21.5028 -0.085982 -2.48525
14 1 22.3994 -0.407163 -2.04589
15 1 22.9666 -0.69126 -1.27388
16 1 23.3258 0.219365 -1.46451
17 1 24.1508 0.13911 -1.01948
18 1 24.0393 -0.751865 -0.852817
19 1 23.9481 -0.428815 0.190051
20 1 23.1526 -0.715339 -0.0315648
21 1 23.2022 -1.24002 0.514522
22 1 22.7265 -0.498902 0.871703
23 1 22.6018 0.422116 1.01506
24 1 22.9003 1.17298 0.799956
25 1 22.9485 1.49776 1.5952
26 1 23.5173 0.70949 1.6141
27 1 22.7847 0.171115 2.0149
28 1 21.8456 -0.0283865 1.82635
29 1 21.1026 -0.926098 2.16522
30 1 20.6834 -1.64918 2.95078
31 1 21.2934 -1.23664 3.63653
32 1 22.1207 -1.50364 4.11601
33 1 22.4633 -2.1698 3.32164
34 1 21.5497 -2.27888 2.81823
35 1 21.0799 -1.99684 1.90383
36 1 20.1815 -1.52858 1.96347
37 1 20.0513 -0.911771 1.07006
38 1 20.7746 -1.52235 1.05812
39 1 20.3408 -1.5669 0.168631
40 1 20.1198 -0.76918 -0.280049
41 1 20.4623 -0.277508 0.360194
42 1 21.3332 -0.417892 0.973014
43 1 21.9181 -0.746583 0.309418
44 1 21.4863 -0.178641 -0.31422
45 1 21.3938 0.740208 -0.589976
46 1 20.5482 1.09355 -0.360284
47 1 20.7669 1.9963 -0.800469
48 1 20.7699 1.53874 -1.97481
49 1 20.8359 0.607907 -2.4607
50 1 20.7655 0.624233 -1.40571
ITEM: TIMESTEP
5000
ITEM: NUMBER OF ATOMS
50
ITEM: BOX BOUNDS pp pp pp
-5.0000000000000000e+01 5.0000000000000000e+01
-5.0000000000000000e+01 5.0000000000000000e+01
-5.0000000000000000e+01 5.0000000000000000e+01
ITEM: ATOMS id type x y z
1 1 22.2139 1.5444 0.471054
2 1 21.5539 2.11951 0.957164
3 1 22.465 2.05137 1.38699
4 1 22.5999 1.72173 2.2779
5 1 23.098 1.1956 1.81478
6 1 23.4639 1.32673 0.984163
7 1 24.6136 1.40226 1.14652
8 1 24.6689 1.12023 0.387453
9 1 24.8602 1.11293 -0.555082
10 1 24.0062 1.74891 -0.281103
11 1 23.7442 0.763522 -0.118687
12 1 23.7119 -0.246289 -0.551089
13 1 24.6849 -0.182112 -0.589267
14 1 24.7936 -0.936577 -0.219568
15 1 25.4473 -0.464317 0.498229
16 1 24.5411 0.177787 0.600705
17 1 23.7677 -0.0264768 0.958185
18 1 23.3832 -0.944259 0.609534
19 1 22.5172 -0.638184 0.672115
20 1 22.4099 0.440964 0.631404
21 1 21.902 0.710172 1.38555
22 1 20.9232 0.320587 1.56405
23 1 20.758 1.27506 1.8488
24 1 20.0132 0.647136 2.24694
25 1 19.7454 0.200058 1.41709
26 1 20.1534 -0.626378 1.14266
27 1 20.8287 -1.37479 1.15041
28 1 21.157 -0.950488 0.446965
29 1 21.5835 -0.358712 0.873332
30 1 20.8979 0.0843439 0.265251
31 1 20.9191 0.991053 0.570421
32 1 20.686 1.59592 -0.249162
33 1 19.7741 0.970626 -0.211283
34 1 19.5909 -0.0542232 -0.620839
35 1 19.8529 -0.170611 0.268299
36 1 20.0336 -0.955186 -0.496971
37 1 20.8224 -1.52474 -0.934561
38 1 21.4843 -1.51494 -0.314824
39 1 22.51 -1.33257 -0.176103
40 1 22.1119 -0.793234 -0.985588
41 1 21.7979 -0.330423 -0.0933314
42 1 21.6151 0.114494 -1.113
43 1 20.802 0.457454 -0.88667
44 1 20.7164 -0.427387 -1.27998
45 1 20.4658 -0.795192 -2.14767
46 1 21.4007 -0.704984 -2.66108
47 1 21.3186 -1.45399 -1.93849
48 1 21.3871 -2.10948 -2.97381
49 1 22.3284 -2.51022 -3.13386
50 1 22.3762 -2.66711 -4.04395
ITEM: TIMESTEP
6000
ITEM: NUMBER OF ATOMS
50
ITEM: BOX BOUNDS pp pp pp
-5.0000000000000000e+01 5.0000000000000000e+01
-5.0000000000000000e+01 5.0000000000000000e+01
-5.0000000000000000e+01 5.0000000000000000e+01
ITEM: ATOMS id type x y z
1 1 21.0251 0.58206 1.15183
2 1 21.1366 -0.178264 1.7189
3 1 20.3874 0.180619 2.18086
4 1 19.5247 0.878388 2.44298
5 1 20.2 0.883132 3.06176
6 1 20.7079 1.05126 2.22182
7 1 21.6749 1.00299 2.65899
8 1 22.549 1.35005 2.60233
9 1 22.0259 1.99973 1.90379
10 1 21.4315 1.82334 1.08483
11 1 22.1304 0.976449 1.52864
12 1 22.1142 0.0911597 1.95127
13 1 22.9794 -0.16518 2.48952
14 1 22.5477 0.4577 3.24097
15 1 21.8021 -0.484932 2.93439
16 1 22.0757 -1.26159 2.32009
17 1 22.1079 -1.73283 1.41959
18 1 22.2273 -1.07407 0.694734
19 1 22.8305 -0.534917 1.28871
20 1 22.6034 0.222554 0.723994
21 1 21.6788 -0.131041 0.155284
22 1 21.8522 -0.229899 -0.706961
23 1 21.524 0.686762 -0.634383
24 1 22.6634 0.742435 -0.486698
25 1 22.4949 0.38045 -1.46935
26 1 22.0897 1.23433 -1.84422
27 1 22.8456 1.64487 -2.12856
28 1 23.4041 1.18443 -1.27757
29 1 23.4417 0.558941 -2.23227
30 1 22.9913 -0.441004 -2.253
31 1 22.4732 -0.937495 -2.86932
32 1 21.8631 -0.198745 -2.51671
33 1 21.4573 0.629081 -2.64494
34 1 20.6802 0.450618 -2.39454
35 1 21.1875 -0.0230518 -1.53763
36 1 20.4801 0.342564 -1.05191
37 1 20.5707 0.028524 -0.0844209
38 1 20.8556 -1.03985 -0.0856089
39 1 20.7491 -0.921037 -0.96005
40 1 21.3944 -0.954239 -1.64472
41 1 22.4555 -0.794777 -1.41383
42 1 22.4687 -1.07255 -0.349661
43 1 22.9394 -0.216291 -0.206829
44 1 23.3089 -0.0539775 -1.08793
45 1 23.9924 0.154068 -1.33394
46 1 24.1272 -0.837854 -1.41761
47 1 23.7802 -1.00765 -0.458685
48 1 23.6489 -1.75263 -1.03607
49 1 22.7291 -1.85639 -1.45166
50 1 22.2709 -1.63625 -2.1962
ITEM: TIMESTEP
7000
ITEM: NUMBER OF ATOMS
50
ITEM: BOX BOUNDS pp pp pp
-5.0000000000000000e+01 5.0000000000000000e+01
-5.0000000000000000e+01 5.0000000000000000e+01
-5.0000000000000000e+01 5.0000000000000000e+01
ITEM: ATOMS id type x y z
1 1 18.2822 0.0808849 0.354709
2 1 17.7286 -0.852508 -0.128664
3 1 18.3998 -0.654739 -0.630881
4 1 18.6361 0.258532 -0.742057
5 1 19.6074 0.663382 -0.211925
6 1 20.2355 1.57604 0.0182558
7 1 20.737 1.70725 -0.775662
8 1 20.6117 0.868364 -1.40717
9 1 21.2088 0.31046 -0.758822
10 1 20.6178 0.177319 -0.0229031
11 1 21.2206 -0.468343 -0.146495
12 1 20.2863 -0.902413 -0.381242
13 1 19.3785 -1.09175 -0.493259
14 1 19.2717 -0.483281 0.159376
15 1 19.6376 -0.91023 0.940135
16 1 20.6065 -0.840281 0.740751
17 1 20.298 0.106878 0.974754
18 1 20.0413 0.96936 1.02581
19 1 20.7913 1.08895 1.43143
20 1 21.7389 0.943865 1.27682
21 1 22.4005 0.578172 2.09127
22 1 22.7252 0.120957 1.28561
23 1 21.9887 0.0358891 0.669335
24 1 22.9435 0.0173125 0.179974
25 1 22.485 0.841629 0.261828
26 1 22.6791 1.38752 1.29876
27 1 23.5045 1.0992 1.0184
28 1 24.3401 1.05315 0.475742
29 1 25.1997 1.30027 0.0415289
30 1 25.4368 0.24511 -0.0551722
31 1 24.6387 0.674765 -0.513286
32 1 24.2788 1.62697 -0.652613
33 1 23.8166 0.852727 -1.12976
34 1 23.116 0.494168 -1.70614
35 1 22.2034 0.601528 -1.94744
36 1 22.3357 0.717186 -0.948141
37 1 22.7322 -0.268692 -1.25487
38 1 22.3155 -0.575108 -0.4029
39 1 22.1022 -1.32635 0.231422
40 1 22.7432 -2.10614 0.380581
41 1 23.2411 -2.4072 -0.518451
42 1 22.8072 -1.60477 -0.875077
43 1 23.3928 -1.23164 -0.160703
44 1 24.0046 -1.38939 -0.913662
45 1 24.6475 -0.732828 -0.873086
46 1 24.5005 -1.10585 -0.0459497
47 1 24.6793 -0.951224 0.818412
48 1 24.1496 -0.148901 0.085339
49 1 23.6381 -0.616161 0.852182
50 1 24.1184 0.269972 1.08391
ITEM: TIMESTEP
8000
ITEM: NUMBER OF ATOMS
50
ITEM: BOX BOUNDS pp pp pp
-5.0000000000000000e+01 5.0000000000000000e+01
-5.0000000000000000e+01 5.0000000000000000e+01
-5.0000000000000000e+01 5.0000000000000000e+01
ITEM: ATOMS id type x y z
1 1 25.1523 1.02287 -1.7673
2 1 24.0429 0.971483 -1.67423
3 1 23.3976 1.73364 -1.91605
4 1 22.241 1.57982 -2.00028
5 1 22.9116 0.921789 -2.54014
6 1 22.9299 -0.115524 -2.24618
7 1 22.1595 0.0495786 -2.55946
8 1 22.2374 0.563593 -1.68534
9 1 21.4847 -0.00298831 -1.71582
10 1 21.7129 -0.92454 -2.05452
11 1 22.2335 -1.51747 -1.64892
12 1 21.3932 -0.910656 -1.10929
13 1 22.2471 -0.281178 -0.738241
14 1 21.4038 0.0755308 -0.66772
15 1 20.7628 0.80762 -0.590015
16 1 20.3396 -0.0916265 -0.999639
17 1 19.4373 0.124464 -0.800538
18 1 19.5959 -0.468578 -1.5839
19 1 20.3419 -1.06962 -1.12708
20 1 19.8169 -1.7609 -0.609615
21 1 19.5798 -0.839145 -0.156887
22 1 20.2225 -0.415431 0.176463
23 1 21.2378 -0.576567 0.0215244
24 1 21.3839 0.353474 0.233895
25 1 20.9435 0.0156097 1.05273
26 1 20.9577 -0.168515 1.9989
27 1 20.8684 0.825727 2.41713
28 1 19.9105 1.18537 2.43603
29 1 20.5413 1.89439 2.31577
30 1 21.5336 1.81627 2.13601
31 1 21.2215 1.09594 1.40332
32 1 20.6571 1.12177 0.509274
33 1 20.5447 1.78977 -0.413971
34 1 21.4838 2.03486 -0.625983
35 1 21.8778 1.21174 -0.736892
36 1 22.6582 0.650507 -0.478636
37 1 23.1128 -0.228683 -0.123134
38 1 22.6778 -0.868358 0.00255437
39 1 23.5105 -0.774002 0.886186
40 1 24.5719 -0.32059 0.693612
41 1 24.936 -0.858418 1.54793
42 1 24.8781 -1.93245 1.52072
43 1 24.2116 -1.82195 0.845381
44 1 23.3541 -2.16274 1.40595
45 1 23.403 -1.30462 1.73314
46 1 23.3618 -1.67993 2.72707
47 1 24.0641 -1.01426 2.53293
48 1 23.4956 -0.173411 1.95935
49 1 22.6993 -0.132177 1.36651
50 1 22.7597 0.568504 0.647394
ITEM: TIMESTEP
9000
ITEM: NUMBER OF ATOMS
50
ITEM: BOX BOUNDS pp pp pp
-5.0000000000000000e+01 5.0000000000000000e+01
-5.0000000000000000e+01 5.0000000000000000e+01
-5.0000000000000000e+01 5.0000000000000000e+01
ITEM: ATOMS id type x y z
1 1 23.5884 -1.04741 2.69609
2 1 23.5187 -1.00206 1.59872
3 1 24.4472 -1.21061 1.75365
4 1 25.3368 -1.30457 1.12975
5 1 25.4269 -0.812388 0.306647
6 1 24.3012 -0.967107 0.358803
7 1 24.085 -0.189199 -0.188659
8 1 24.6094 0.437858 -0.0839362
9 1 24.3154 0.764828 -1.11265
10 1 23.9378 0.723472 -2.12707
11 1 23.952 -0.133638 -1.75323
12 1 23.2964 -0.900595 -1.59888
13 1 22.8234 -1.00998 -0.66153
14 1 21.9317 -0.421147 -0.381524
15 1 22.4769 0.422044 -0.46961
16 1 21.7238 1.19282 -0.643046
17 1 22.4852 1.02881 -1.19717
18 1 22.5124 1.10824 -2.18389
19 1 22.2273 0.114422 -1.72943
20 1 22.1055 -0.946431 -1.59137
21 1 22.0949 -1.92092 -1.12858
22 1 21.8785 -2.59379 -0.200408
23 1 21.6144 -1.56113 0.0219347
24 1 20.7547 -1.86234 -0.392075
25 1 21.0843 -0.96233 -0.554106
26 1 20.6057 -0.708526 -1.36092
27 1 20.1218 0.292097 -1.25432
28 1 20.9602 0.302857 -0.903012
29 1 20.7432 1.38549 -0.583858
30 1 19.6508 1.48749 -0.577248
31 1 18.6606 1.24488 -0.628825
32 1 19.2007 0.451722 -0.239255
33 1 19.3406 1.15585 0.4072
34 1 20.2003 0.862668 0.188685
35 1 20.1726 1.20545 1.24659
36 1 21.0781 1.8732 0.658386
37 1 22.0176 1.6532 0.564143
38 1 22.9331 1.26953 0.343062
39 1 23.6151 0.652865 0.141672
40 1 23.0469 -0.121453 0.239169
41 1 23.1013 0.473939 1.08013
42 1 22.4882 0.772532 1.84973
43 1 22.2054 0.00648439 1.38042
44 1 21.3658 0.584282 1.37884
45 1 20.4973 0.220888 0.944311
46 1 20.441 0.175791 2.05031
47 1 20.8147 -0.719423 1.64783
48 1 20.5378 -1.10489 0.844947
49 1 20.69 -0.343704 0.169597
50 1 21.4831 -0.0200565 0.543991
ITEM: TIMESTEP
10000
ITEM: NUMBER OF ATOMS
50
ITEM: BOX BOUNDS pp pp pp
-5.0000000000000000e+01 5.0000000000000000e+01
-5.0000000000000000e+01 5.0000000000000000e+01
-5.0000000000000000e+01 5.0000000000000000e+01
ITEM: ATOMS id type x y z
1 1 21.7659 0.291594 4.13869
2 1 21.5267 0.342507 3.04296
3 1 20.5481 0.0979029 3.15372
4 1 20.422 0.0144967 2.29027
5 1 20.9392 0.808572 1.83815
6 1 21.4459 -0.000511791 1.60685
7 1 22.2035 0.275959 2.07363
8 1 22.2938 -0.578652 1.61128
9 1 21.8643 -0.721896 2.48155
10 1 21.2253 -1.12462 1.93388
11 1 21.397 -2.17494 2.4668
12 1 22.1875 -2.68789 1.8575
13 1 21.4932 -2.10375 1.48646
14 1 22.4312 -1.76673 1.33032
15 1 22.863 -0.977631 0.910214
16 1 23.5151 -0.463161 0.254338
17 1 23.8189 0.435256 0.286716
18 1 23.0701 0.275462 -0.430398
19 1 23.7499 0.647093 -0.747044
20 1 24.5992 0.241336 -1.23641
21 1 24.5261 -0.599886 -1.96322
22 1 24.2516 -1.15145 -1.4422
23 1 23.5553 -0.396821 -1.40647
24 1 23.0215 -0.263735 -2.10838
25 1 22.1645 -0.318964 -2.68238
26 1 22.2072 0.362044 -1.96403
27 1 22.9863 0.764585 -1.52659
28 1 23.1961 1.51216 -2.04781
29 1 23.4129 1.88237 -1.10523
30 1 22.298 1.54168 -1.28546
31 1 22.3015 2.20372 -1.97947
32 1 22.1432 1.30395 -2.5957
33 1 21.3447 0.910217 -2.15995
34 1 21.0541 0.883266 -1.24133
35 1 20.7391 0.354523 -0.406655
36 1 21.6344 -0.097996 -0.397228
37 1 21.5649 0.197648 0.493576
38 1 21.676 0.873729 -0.272076
39 1 20.8959 1.2579 0.0431756
40 1 20.9181 1.44154 1.05104
41 1 20.1969 0.93464 0.704361
42 1 20.4741 -0.0314928 1.08681
43 1 21.0604 -0.850654 0.848016
44 1 21.9229 -0.826774 0.370122
45 1 22.7153 -0.827543 -0.237139
46 1 22.4685 -0.264623 -1.14845
47 1 21.8988 -0.588801 -1.74162
48 1 21.222 -0.189132 -2.20114
49 1 21.0011 -0.202677 -1.28553
50 1 20.2887 -0.643827 -1.74851
ITEM: TIMESTEP
11000
ITEM: NUMBER OF ATOMS
50
ITEM: BOX BOUNDS pp pp pp
-5.0000000000000000e+01 5.0000000000000000e+01
-5.0000000000000000e+01 5.0000000000000000e+01
-5.0000000000000000e+01 5.0000000000000000e+01
ITEM: ATOMS id type x y z
1 1 17.3261 -1.30205 -0.18626
2 1 17.7721 -0.650081 -0.642761
3 1 18.176 0.0495805 -0.103309
4 1 18.9476 -0.495317 -0.549721
5 1 18.6131 -1.022 0.260404
6 1 18.0117 -0.6112 0.934546
7 1 18.9707 -0.441249 1.21002
8 1 19.8728 0.0871381 0.869418
9 1 20.4425 -0.326436 1.51867
10 1 20.1654 0.0616293 2.33237
11 1 20.9486 0.625164 2.65526
12 1 21.4009 0.192748 1.93601
13 1 22.103 0.577896 2.54075
14 1 22.3255 0.777102 1.58883
15 1 21.3876 1.36905 1.82806
16 1 21.215 1.07317 0.902403
17 1 21.8564 0.434371 0.561657
18 1 22.1364 -0.382492 1.1555
19 1 22.8757 -0.874656 0.942733
20 1 23.9238 -1.07033 1.31146
21 1 24.3735 -1.12947 0.348909
22 1 25.0388 -0.86712 1.13875
23 1 24.7351 0.0456747 1.46055
24 1 24.84 0.969105 1.03794
25 1 25.5108 0.982923 0.192049
26 1 25.0502 0.0531689 0.454747
27 1 24.1583 0.414283 0.529514
28 1 23.6983 0.229367 1.27767
29 1 22.9788 0.273158 0.562943
30 1 23.2532 1.25474 0.48421
31 1 22.6147 1.92408 0.69732
32 1 23.115 2.30073 -0.116645
33 1 24.0322 1.98739 0.24324
34 1 24.1502 1.06013 -0.471368
35 1 24.3177 0.177193 -0.730136
36 1 23.4457 0.520267 -1.04579
37 1 22.6404 0.114826 -0.537102
38 1 21.7489 0.0752495 -0.709147
39 1 21.8546 0.906962 -0.272679
40 1 21.5937 1.6025 -1.04493
41 1 22.4907 1.08586 -1.17105
42 1 21.898 0.762249 -2.01133
43 1 21.8602 -0.029357 -2.5473
44 1 20.9235 -0.428637 -2.69259
45 1 21.3149 -1.28389 -2.20203
46 1 21.6729 -1.92806 -3.01008
47 1 21.864 -2.10163 -2.02284
48 1 22.7146 -1.8933 -2.59697
49 1 23.3162 -2.58288 -2.70544
50 1 22.8238 -2.56755 -3.60646
ITEM: TIMESTEP
12000
ITEM: NUMBER OF ATOMS
50
ITEM: BOX BOUNDS pp pp pp
-5.0000000000000000e+01 5.0000000000000000e+01
-5.0000000000000000e+01 5.0000000000000000e+01
-5.0000000000000000e+01 5.0000000000000000e+01
ITEM: ATOMS id type x y z
1 1 18.2644 -1.35644 0.114112
2 1 19.0614 -0.746045 -0.0488691
3 1 19.6329 -0.419573 -0.812329
4 1 19.9379 -0.549302 -1.73708
5 1 19.9806 -1.66624 -1.52463
6 1 20.2081 -1.61428 -0.552155
7 1 20.4536 -2.60326 -0.310991
8 1 20.9831 -2.56417 0.483194
9 1 21.7839 -1.87952 0.514194
10 1 21.0313 -1.45401 0.0678027
11 1 21.7649 -0.97288 -0.623183
12 1 22.26 -1.50374 -1.42099
13 1 22.6712 -2.47154 -1.01972
14 1 22.8748 -1.64646 -0.556552
15 1 22.7333 -1.52174 0.361569
16 1 22.053 -0.921921 0.714627
17 1 21.8586 -0.0467549 0.89023
18 1 20.9139 0.218609 1.13586
19 1 21.0327 1.11528 1.56096
20 1 21.19 2.0451 1.52156
21 1 20.4127 1.89667 0.745662
22 1 20.0061 1.06006 1.25068
23 1 19.9731 0.643536 2.05856
24 1 20.0047 1.68362 2.19368
25 1 20.412 1.27682 2.95339
26 1 21.0855 0.57722 2.75466
27 1 21.6797 1.42526 2.56326
28 1 22.4631 1.68173 1.97013
29 1 22.9945 1.61048 1.09978
30 1 22.87 1.31269 0.166897
31 1 23.4224 1.51641 -0.591001
32 1 23.9882 1.57515 0.284083
33 1 24.0287 1.09666 1.23638
34 1 23.5915 0.541771 0.728603
35 1 24.0943 0.318157 0.0795247
36 1 24.2534 -0.627162 0.475333
37 1 23.1623 -0.481897 0.0951788
38 1 22.5979 0.264484 -0.00412134
39 1 22.2565 1.01095 -0.690637
40 1 22.371 1.01472 -1.6669
41 1 22.4136 0.025683 -1.30901
42 1 23.2725 0.472936 -0.878266
43 1 24.318 0.282292 -1.03784
44 1 24.0425 -0.564188 -1.50501
45 1 23.3041 -0.785027 -0.881585
46 1 23.1848 -1.05192 -1.76095
47 1 23.0835 -0.219789 -2.32283
48 1 23.1655 0.918566 -2.38467
49 1 24.1983 0.900604 -2.16445
50 1 25.16 1.18238 -2.21614
ITEM: TIMESTEP
13000
ITEM: NUMBER OF ATOMS
50
ITEM: BOX BOUNDS pp pp pp
-5.0000000000000000e+01 5.0000000000000000e+01
-5.0000000000000000e+01 5.0000000000000000e+01
-5.0000000000000000e+01 5.0000000000000000e+01
ITEM: ATOMS id type x y z
1 1 18.4331 -0.805021 -2.22627
2 1 19.3553 -0.54357 -1.90074
3 1 19.9542 -0.525472 -1.06976
4 1 20.8371 -0.493319 -1.44601
5 1 20.5128 -0.968009 -2.34982
6 1 21.254 -1.62095 -2.69509
7 1 22.2039 -1.37989 -2.4022
8 1 21.6576 -0.948445 -1.57648
9 1 21.7106 -1.60495 -0.969858
10 1 21.2252 -2.2388 -0.571543
11 1 21.201 -2.41594 0.504229
12 1 21.686 -1.72705 0.816184
13 1 22.3379 -2.21625 0.244466
14 1 21.8727 -1.28595 -0.0919514
15 1 20.8808 -0.957838 -0.358901
16 1 20.4118 -1.1851 0.556966
17 1 20.4148 -0.228631 0.884562
18 1 19.7419 -0.402216 0.0992991
19 1 20.71 0.238277 -0.0463423
20 1 21.443 -0.0522064 -0.677139
21 1 22.2662 -0.177402 -0.665023
22 1 22.3082 0.0696738 -1.73627
23 1 22.8339 0.717217 -1.37813
24 1 23.0393 1.42766 -0.744367
25 1 22.2536 1.02099 -0.10748
26 1 22.0259 1.2675 -0.973206
27 1 21.0158 1.2469 -0.747122
28 1 19.9473 1.39524 -0.600137
29 1 19.7517 1.66036 0.354771
30 1 20.6109 1.14877 0.548767
31 1 21.4371 1.15011 0.752257
32 1 22.2258 0.714552 1.14331
33 1 21.5764 0.0763099 1.26934
34 1 21.2139 -0.958668 1.33043
35 1 21.503 -0.605802 0.499128
36 1 22.3994 -0.777313 0.972392
37 1 23.2663 -0.182066 1.2818
38 1 22.9413 -0.0461021 0.399107
39 1 23.5381 0.645714 -0.00199392
40 1 23.2199 1.75438 0.279593
41 1 23.2431 1.12432 1.0652
42 1 24.0479 0.54107 1.00769
43 1 24.2543 -0.262485 1.46688
44 1 24.7693 -0.12489 0.52483
45 1 24.9939 0.822389 0.837301
46 1 24.3976 1.73313 0.737472
47 1 24.1787 1.74047 1.70968
48 1 25.0103 2.36097 1.975
49 1 25.3037 1.3995 1.98465
50 1 25.0837 0.478848 2.09055
ITEM: TIMESTEP
14000
ITEM: NUMBER OF ATOMS
50
ITEM: BOX BOUNDS pp pp pp
-5.0000000000000000e+01 5.0000000000000000e+01
-5.0000000000000000e+01 5.0000000000000000e+01
-5.0000000000000000e+01 5.0000000000000000e+01
ITEM: ATOMS id type x y z
1 1 21.0644 0.0891661 -3.14781
2 1 21.1716 -0.911999 -3.17602
3 1 22.0546 -1.33413 -3.0662
4 1 22.188 -2.32025 -3.27184
5 1 21.8923 -2.39016 -2.44561
6 1 21.3005 -3.15068 -2.6782
7 1 20.7378 -2.80832 -1.8627
8 1 20.9362 -2.04621 -2.35493
9 1 19.9523 -2.01604 -2.08182
10 1 20.1697 -2.02803 -1.15222
11 1 20.6192 -1.36255 -0.427277
12 1 20.2851 -0.567182 -0.105095
13 1 21.3324 -0.521584 -0.0184064
14 1 21.7443 -1.08382 -0.704688
15 1 21.3428 -1.53965 -1.63403
16 1 22.0916 -0.802599 -1.96592
17 1 21.4174 -0.0923047 -1.96684
18 1 20.9689 -0.2783 -1.01003
19 1 21.8061 -0.0206891 -0.724719
20 1 22.6228 -0.377528 -1.07119
21 1 23.1043 -1.28296 -1.05779
22 1 22.7577 -1.58283 -0.00719825
23 1 23.8288 -1.38727 -0.165645
24 1 23.3223 -0.478981 -0.0925719
25 1 24.0366 -0.13479 -0.48102
26 1 23.7607 0.471272 0.182013
27 1 22.8246 0.921846 0.426161
28 1 23.1076 0.830682 -0.449232
29 1 22.9696 0.754672 -1.35866
30 1 22.0847 0.750833 -1.83948
31 1 21.831 1.64895 -1.79151
32 1 20.7668 1.74534 -1.76853
33 1 21.1108 2.23736 -1.11199
34 1 21.1739 1.18561 -0.933916
35 1 20.3203 0.962388 -0.654975
36 1 21.0535 0.668272 -0.00105993
37 1 21.757 0.905671 0.556515
38 1 21.4801 -0.0425474 0.88263
39 1 22.5223 0.0680479 0.786876
40 1 22.9565 0.329656 1.63502
41 1 21.9932 0.514477 1.76976
42 1 22.3267 0.499012 2.84081
43 1 22.4367 0.389042 3.95332
44 1 23.2385 0.58015 4.60599
45 1 23.5454 1.16243 5.01391
46 1 23.6209 1.95415 4.58312
47 1 22.62 1.8711 4.77393
48 1 23.0789 2.60721 5.15856
49 1 23.422 3.38863 4.53915
50 1 23.7504 4.02545 4.87135
ITEM: TIMESTEP
15000
ITEM: NUMBER OF ATOMS
50
ITEM: BOX BOUNDS pp pp pp
-5.0000000000000000e+01 5.0000000000000000e+01
-5.0000000000000000e+01 5.0000000000000000e+01
-5.0000000000000000e+01 5.0000000000000000e+01
ITEM: ATOMS id type x y z
1 1 21.3521 -1.34094 0.54668
2 1 21.8578 -1.97918 -0.172461
3 1 22.0404 -1.71018 -1.12879
4 1 23.1191 -1.64069 -1.09515
5 1 23.6825 -2.0481 -1.67755
6 1 22.9371 -1.79114 -2.34684
7 1 22.1411 -2.39579 -2.54642
8 1 22.1943 -1.6131 -3.19791
9 1 22.3772 -0.852808 -2.30036
10 1 22.0761 -0.26205 -1.47838
11 1 21.2055 -0.327506 -1.98508
12 1 20.2499 -0.604406 -1.79207
13 1 20.4691 -0.225791 -0.809689
14 1 20.8125 -0.680688 0.0301064
15 1 21.1974 -1.05799 -0.981042
16 1 21.8127 -0.827226 -0.370906
17 1 21.8691 0.244418 -0.438267
18 1 22.5439 0.0282219 0.225803
19 1 23.4855 -0.14863 0.552045
20 1 23.2336 -0.487838 -0.320715
21 1 22.7823 -1.309 -0.0396364
22 1 22.8602 -1.86211 0.909869
23 1 22.877 -0.731753 1.09869
24 1 23.4596 -0.366864 1.77452
25 1 23.59 -1.25161 1.81128
26 1 23.9649 -1.10134 0.917996
27 1 24.5264 -0.694286 0.0572278
28 1 24.5485 0.282946 0.509142
29 1 24.3272 0.286759 -0.53199
30 1 24.2013 1.30548 -0.250698
31 1 23.4442 0.67685 -0.00419306
32 1 22.6219 1.06459 -0.0201858
33 1 22.739 1.37336 -1.02457
34 1 22.5584 2.28555 -1.35351
35 1 22.3924 2.55493 -0.402371
36 1 21.4031 2.10209 -0.669176
37 1 21.632 1.2856 -0.599627
38 1 20.6358 1.2205 -0.613718
39 1 20.2781 1.05805 0.313087
40 1 21.1078 0.672826 0.289956
41 1 21.237 1.58611 0.71781
42 1 21.866 2.12904 1.11379
43 1 21.7583 1.64708 2.00647
44 1 20.7721 1.51831 1.76188
45 1 20.6449 0.413374 1.42934
46 1 19.7094 0.850719 1.48479
47 1 19.4063 1.24607 2.38394
48 1 20.3184 0.98686 2.55309
49 1 20.2934 0.40264 3.34268
50 1 19.8874 0.0886357 2.32112
ITEM: TIMESTEP
16000
ITEM: NUMBER OF ATOMS
50
ITEM: BOX BOUNDS pp pp pp
-5.0000000000000000e+01 5.0000000000000000e+01
-5.0000000000000000e+01 5.0000000000000000e+01
-5.0000000000000000e+01 5.0000000000000000e+01
ITEM: ATOMS id type x y z
1 1 20.2431 0.742086 0.998845
2 1 20.8703 -0.0855934 1.04889
3 1 21.7074 -0.600083 1.20605
4 1 22.3398 -0.177303 0.831213
5 1 22.7099 -0.168669 0.0150732
6 1 22.9345 -1.03418 -0.537978
7 1 22.054 -1.08618 -0.0705136
8 1 22.3308 -1.91231 0.0440138
9 1 22.4641 -2.20287 -0.742738
10 1 21.7439 -1.75199 -1.26199
11 1 22.3849 -1.057 -1.88572
12 1 21.7097 -0.467928 -2.18032
13 1 22.1246 0.321451 -1.5868
14 1 21.2968 -0.175117 -1.26765
15 1 21.2386 -0.246437 -0.309523
16 1 21.5548 0.735795 -0.107319
17 1 22.2732 0.919467 0.635226
18 1 21.3315 0.952362 0.949346
19 1 22.0078 1.00701 1.58558
20 1 22.1224 0.0449342 1.9044
21 1 21.2583 0.491273 1.94522
22 1 21.1484 -0.406248 2.23297
23 1 21.7522 -1.26303 2.1412
24 1 21.5795 -1.82551 1.20003
25 1 22.6533 -1.69589 1.53993
26 1 23.005 -0.750047 1.69765
27 1 23.102 0.289641 1.44241
28 1 24.0131 0.211636 1.73217
29 1 23.758 0.648145 2.55203
30 1 24.0521 1.50498 2.35567
31 1 23.8077 1.26303 1.43314
32 1 24.6631 1.28171 1.60013
33 1 25.1932 1.20851 0.874246
34 1 25.3119 1.29157 -0.0810547
35 1 24.4187 0.82156 -0.286905
36 1 23.5709 0.988951 0.0772409
37 1 23.5586 1.56054 -0.778003
38 1 22.807 1.89905 -0.266724
39 1 21.8943 2.12446 0.204956
40 1 21.0512 2.56755 -0.267831
41 1 20.7568 1.6835 0.128741
42 1 20.1536 2.12871 -0.571071
43 1 19.6516 1.41644 -1.16827
44 1 19.6182 0.22457 -1.26982
45 1 20.299 -0.531299 -1.70054
46 1 20.4344 -1.46023 -1.37185
47 1 20.4294 -1.71742 -2.39963
48 1 20.019 -1.87438 -3.42663
49 1 20.3959 -2.56408 -4.09556
50 1 20.7015 -3.27512 -4.74193
ITEM: TIMESTEP
17000
ITEM: NUMBER OF ATOMS
50
ITEM: BOX BOUNDS pp pp pp
-5.0000000000000000e+01 5.0000000000000000e+01
-5.0000000000000000e+01 5.0000000000000000e+01
-5.0000000000000000e+01 5.0000000000000000e+01
ITEM: ATOMS id type x y z
1 1 20.6872 0.37974 1.32161
2 1 21.3356 0.383115 0.515316
3 1 22.064 -0.110918 0.135712
4 1 21.8203 -0.943278 0.761637
5 1 21.2962 -1.76103 0.355632
6 1 21.8549 -1.79466 -0.355713
7 1 20.8815 -1.84872 -0.577604
8 1 20.5353 -1.38864 -1.48802
9 1 20.1203 -0.785676 -2.19181