ITEM: TIMESTEP
0
ITEM: NUMBER OF ATOMS
50
ITEM: BOX BOUNDS pp pp pp
-5.0000000000000000e+01 5.0000000000000000e+01
-5.0000000000000000e+01 5.0000000000000000e+01
-5.0000000000000000e+01 5.0000000000000000e+01
ITEM: ATOMS id type x y z
1 1 -2.40873 0 0
2 1 -1.40933 0 0
3 1 -0.41054 0 0
4 1 0.588199 0 0
5 1 1.58688 0 0
6 1 2.58551 0 0
7 1 3.58409 0 0
8 1 4.58261 0 0
9 1 5.58107 0 0
10 1 6.57948 0 0
11 1 7.57784 0 0
12 1 8.57614 0 0
13 1 9.57439 0 0
14 1 10.5726 0 0
15 1 11.5707 0 0
16 1 12.5688 0 0
17 1 13.5668 0 0
18 1 14.5648 0 0
19 1 15.5627 0 0
20 1 16.5606 0 0
21 1 17.5584 0 0
22 1 18.5561 0 0
23 1 19.5543 0 0
24 1 20.5526 0 0
25 1 21.5509 0 0
26 1 22.5491 0 0
27 1 23.5474 0 0
28 1 24.5457 0 0
29 1 25.5439 0 0
30 1 26.5416 0 0
31 1 27.5394 0 0
32 1 28.5373 0 0
33 1 29.5352 0 0
34 1 30.5332 0 0
35 1 31.5312 0 0
36 1 32.5293 0 0
37 1 33.5274 0 0
38 1 34.5256 0 0
39 1 35.5239 0 0
40 1 36.5222 0 0
41 1 37.5205 0 0
42 1 38.5189 0 0
43 1 39.5174 0 0
44 1 40.5159 0 0
45 1 41.5145 0 0
46 1 42.5131 0 0
47 1 43.5118 0 0
48 1 44.5105 0 0
49 1 45.5093 0 0
50 1 46.5087 0 0
ITEM: TIMESTEP
1000
ITEM: NUMBER OF ATOMS
50
ITEM: BOX BOUNDS pp pp pp
-5.0000000000000000e+01 5.0000000000000000e+01
-5.0000000000000000e+01 5.0000000000000000e+01
-5.0000000000000000e+01 5.0000000000000000e+01
ITEM: ATOMS id type x y z
1 1 8.09289 -0.356573 0.167872
2 1 8.50089 0.518809 0.680932
3 1 8.30978 1.52232 1.04327
4 1 7.54689 2.01187 0.812317
5 1 7.61496 1.45534 -0.0793821
6 1 8.16491 1.27962 -0.844803
7 1 8.8395 0.773712 -0.22426
8 1 9.06279 -0.142275 0.166944
9 1 9.569 0.60017 0.373162
10 1 10.5752 0.770698 0.121036
11 1 11.3486 0.546342 -0.54495
12 1 12.2267 0.316154 -0.25082
13 1 13.0256 0.0174459 -0.720218
14 1 13.0894 -0.874216 -1.24569
15 1 14.0158 -0.727323 -0.726848
16 1 14.9792 -0.423085 -0.602613
17 1 15.8832 -0.486013 -0.9726
18 1 16.6223 -0.953931 -0.45346
19 1 17.6013 -0.857833 -0.506576
20 1 18.1744 -0.104558 -0.282734
21 1 19.1573 -0.214593 -0.383747
22 1 19.2142 -0.580362 0.540275
23 1 19.5667 -1.35303 0.0073058
24 1 20.3483 -1.16593 0.644613
25 1 21.2761 -1.55173 0.727545
26 1 21.6895 -1.48953 -0.169416
27 1 22.7161 -1.64968 -0.184536
28 1 23.5518 -1.30945 -0.701211
29 1 24.3377 -1.78225 -1.07989
30 1 25.0309 -1.16648 -1.41724
31 1 26.03 -1.17591 -1.16645
32 1 27.0054 -0.949544 -1.35624
33 1 27.8358 -0.57881 -1.37307
34 1 28.6795 -0.15032 -1.21335
35 1 29.4977 0.0734637 -0.691389
36 1 30.182 0.827319 -0.502248
37 1 30.7344 0.69484 0.296238
38 1 31.129 0.209564 -0.450016
39 1 31.391 1.05925 -0.739098
40 1 32.0916 0.515653 -0.627429
41 1 32.3376 0.902288 0.278487
42 1 33.3295 0.641771 0.02042
43 1 34.3284 0.970276 0.108803
44 1 35.3197 1.07123 0.118717
45 1 36.1719 0.834857 0.590058
46 1 36.8483 1.08494 1.30695
47 1 37.2141 0.460337 1.8462
48 1 37.7379 0.351838 2.75679
49 1 36.9997 0.65056 3.23758
50 1 37.5046 -0.117259 3.66476
ITEM: TIMESTEP
2000
ITEM: NUMBER OF ATOMS
50
ITEM: BOX BOUNDS pp pp pp
-5.0000000000000000e+01 5.0000000000000000e+01
-5.0000000000000000e+01 5.0000000000000000e+01
-5.0000000000000000e+01 5.0000000000000000e+01
ITEM: ATOMS id type x y z
1 1 16.5958 3.42544 1.33921
2 1 17.2939 2.85333 1.11644
3 1 17.1309 1.78787 1.2778
4 1 16.6332 0.888203 1.39378
5 1 17.4618 1.10595 0.721773
6 1 18.4142 0.932881 0.644229
7 1 18.2467 0.025031 0.810928
8 1 17.4549 -0.0235009 0.118926
9 1 17.7327 0.504975 -0.559421
10 1 18.6586 0.637385 -0.573286
11 1 18.4969 0.0418206 -1.28052
12 1 18.7191 -0.115336 -2.33339
13 1 19.2253 -0.910005 -2.3959
14 1 19.0699 -1.55561 -1.64574
15 1 18.252 -1.15238 -1.47208
16 1 18.7432 -1.02548 -0.643885
17 1 19.6927 -0.958644 -0.545155
18 1 19.8319 -0.641602 -1.42194
19 1 19.5787 0.0419178 -0.688523
20 1 20.4174 0.489499 -0.590314
21 1 21.1596 -0.170605 -0.405881
22 1 21.0257 -1.13754 0.0949876
23 1 21.21 -2.16652 0.0577063
24 1 21.9406 -1.63701 -0.503095
25 1 22.2706 -0.758613 -0.482484
26 1 22.9933 -0.221303 -0.9617
27 1 23.3877 -1.01856 -0.559351
28 1 23.2512 -1.5444 -1.42269
29 1 23.8609 -1.22714 -2.16744
30 1 24.4244 -1.7437 -1.52826
31 1 25.1236 -1.91432 -2.1704
32 1 25.4097 -1.80784 -1.17633
33 1 25.0452 -0.920477 -1.63038
34 1 25.1716 0.151929 -1.5925
35 1 24.6549 0.908807 -1.09067
36 1 24.2466 0.401451 -0.388972
37 1 24.0689 -0.333143 -1.07262
38 1 24.9707 -0.443035 -0.528357
39 1 25.7184 -0.490665 0.235837
40 1 24.708 -0.799941 0.354945
41 1 24.7357 0.213881 0.593851
42 1 25.4996 0.250736 1.19201
43 1 24.8242 0.237078 1.80254
44 1 25.4506 1.01868 2.11263
45 1 26.2825 1.46777 2.30824
46 1 26.7355 0.730823 2.76499
47 1 27.6975 1.0359 2.82865
48 1 27.0567 1.83077 3.02324
49 1 26.3136 1.78141 3.79456
50 1 25.6125 1.95385 3.24401
ITEM: TIMESTEP
3000
ITEM: NUMBER OF ATOMS
50
ITEM: BOX BOUNDS pp pp pp
-5.0000000000000000e+01 5.0000000000000000e+01
-5.0000000000000000e+01 5.0000000000000000e+01
-5.0000000000000000e+01 5.0000000000000000e+01
ITEM: ATOMS id type x y z
1 1 24.0259 0.151964 1.48533
2 1 23.6701 1.06461 1.2083
3 1 23.3922 0.174965 0.714448
4 1 23.2524 0.357892 -0.283146
5 1 22.6884 0.895275 0.153293
6 1 21.687 0.653545 -0.00441434
7 1 22.3585 0.796142 -0.720488
8 1 22.385 1.80287 -0.734095
9 1 23.2023 1.53417 -1.01982
10 1 23.05 2.52316 -1.33946
11 1 22.1885 2.69776 -1.16236
12 1 21.5065 2.43119 -0.572815
13 1 21.4509 1.30303 -0.710333
14 1 20.9401 1.4519 0.308645
15 1 20.7122 0.390708 0.245539
16 1 20.2958 0.109573 -0.766669
17 1 20.8316 -0.419355 -1.54624
18 1 21.6718 -1.09473 -1.4861
19 1 21.7001 -0.361747 -0.855525
20 1 21.5972 -0.759792 0.136018
21 1 20.8777 -0.731175 -0.344571
22 1 21.4089 -1.5288 -0.6622
23 1 22.027 -2.32236 -0.698745
24 1 22.5451 -1.58694 -0.867453
25 1 23.3025 -1.13382 -0.294205
26 1 23.8188 -1.6803 0.218872
27 1 24.6391 -2.30727 -0.0657144
28 1 25.0359 -2.0069 -0.831231
29 1 25.302 -1.10795 -0.955912
30 1 26.0853 -1.23862 -0.365582
31 1 25.8777 -0.395665 -0.485248
32 1 25.878 -0.182424 -1.3858
33 1 25.0362 0.190152 -1.74167
34 1 24.88 0.789643 -1.00268
35 1 25.152 0.444121 -0.137315
36 1 24.7652 -0.413267 -0.22979
37 1 24.3512 -0.561501 0.584455
38 1 23.4993 -0.893685 1.10675
39 1 22.4547 -1.01606 1.30445
40 1 21.6505 -0.540056 1.17311
41 1 20.9004 -1.17719 1.53337
42 1 20.8272 -0.173413 1.85216
43 1 19.9028 0.123615 1.38202
44 1 18.9126 0.28734 1.605
45 1 17.8361 0.144323 1.78909
46 1 17.0359 0.784588 1.42455
47 1 16.3028 1.4044 1.68238
48 1 15.8547 1.03329 0.788643
49 1 16.5151 0.288049 0.46973
50 1 17.2188 -0.195266 0.103448
ITEM: TIMESTEP
4000
ITEM: NUMBER OF ATOMS
50
ITEM: BOX BOUNDS pp pp pp
-5.0000000000000000e+01 5.0000000000000000e+01
-5.0000000000000000e+01 5.0000000000000000e+01
-5.0000000000000000e+01 5.0000000000000000e+01
ITEM: ATOMS id type x y z
1 1 21.6871 0.721263 2.00634
2 1 21.9584 1.77885 1.91714
3 1 21.9248 1.25249 1.07377
4 1 22.8818 1.56484 1.37778
5 1 22.7791 1.21454 0.423337
6 1 23.682 1.07717 0.473256
7 1 24.2262 1.88128 0.086394
8 1 23.9959 1.61696 -0.832512
9 1 23.8983 2.5086 -1.25193
10 1 24.0654 2.29718 -2.13032
11 1 24.429 3.0405 -2.78477
12 1 24.5018 3.42508 -1.81404
13 1 25.4265 3.45907 -1.28949
14 1 24.6312 3.48356 -0.652772
15 1 23.6288 3.68679 -0.837084
16 1 23.5922 3.07163 -0.139799
17 1 23.7426 3.27679 0.845928
18 1 23.0644 2.49495 0.826787
19 1 23.2542 1.96227 -0.0917625
20 1 23.0339 1.25496 -0.921756
21 1 22.242 0.745548 -1.13892
22 1 22.4353 -0.197728 -0.910986
23 1 22.2198 -0.707779 0.00342185
24 1 22.4725 -1.70551 0.368513
25 1 21.6366 -1.31489 0.807877
26 1 21.3364 -1.7929 1.67419
27 1 22.3073 -2.01316 1.72274
28 1 21.8685 -2.17377 2.59072
29 1 22.5825 -2.8586 2.1992
30 1 23.2514 -2.34259 1.59841
31 1 23.5504 -2.61782 0.826494
32 1 24.3182 -1.84356 1.13765
33 1 24.0168 -0.958707 0.992188
34 1 23.6303 -0.488781 0.18868
35 1 22.9131 0.214154 -0.018856
36 1 22.9166 0.089669 1.01113
37 1 22.3809 -0.402798 1.63725
38 1 21.6577 0.163994 1.14173
39 1 20.6886 0.0570946 0.972942
40 1 20.532 -0.224949 -0.0467188
41 1 20.2751 -1.14096 -0.391819
42 1 20.043 -0.916971 -1.24739
43 1 19.5628 -1.7092 -1.37459
44 1 19.0214 -2.18139 -0.540832
45 1 18.7602 -2.75667 -1.36517
46 1 17.9378 -2.99121 -1.67141
47 1 17.4645 -2.8836 -2.62078
48 1 16.903 -2.72942 -2.00145
49 1 16.6096 -3.1957 -1.16827
50 1 16.5622 -4.19058 -0.660426
ITEM: TIMESTEP
5000
ITEM: NUMBER OF ATOMS
50
ITEM: BOX BOUNDS pp pp pp
-5.0000000000000000e+01 5.0000000000000000e+01
-5.0000000000000000e+01 5.0000000000000000e+01
-5.0000000000000000e+01 5.0000000000000000e+01
ITEM: ATOMS id type x y z
1 1 22.6697 3.28781 0.0471386
2 1 21.7719 3.33822 0.558182
3 1 21.1662 2.54145 0.300211
4 1 22.0523 2.30434 0.415953
5 1 22.451 2.80141 1.213
6 1 23.049 3.29031 1.93669
7 1 23.7162 2.81059 1.46042
8 1 23.1031 2.19338 1.82176
9 1 23.4313 1.12813 1.76449
10 1 24.1654 0.649178 2.38186
11 1 24.5005 0.147041 1.60811
12 1 24.701 0.649597 0.864084
13 1 25.1849 -0.0752739 0.426632
14 1 25.728 0.449233 -0.0526858
15 1 24.7674 0.716371 -0.245915
16 1 24.2116 1.51372 -0.197048
17 1 23.6542 1.25721 0.581287
18 1 23.0777 0.440586 0.743351
19 1 23.5561 -0.205364 1.44021
20 1 22.7323 -0.656159 1.18672
21 1 22.2831 -1.05166 0.239864
22 1 21.3209 -0.768084 0.496772
23 1 20.7966 -0.326373 -0.301436
24 1 20.7714 0.462654 -1.04195
25 1 19.7231 0.61011 -1.08062
26 1 20.1695 -0.372834 -1.12206
27 1 19.4673 -0.414962 -0.318144
28 1 18.6565 -0.618821 0.198087
29 1 19.0657 -1.53532 0.0268374
30 1 18.6088 -1.93932 0.87036
31 1 19.3282 -1.26408 1.1843
32 1 20.159 -0.881414 1.72982
33 1 20.333 -0.17977 0.939796
34 1 19.619 0.420376 0.751098
35 1 19.9036 0.806442 -0.043831
36 1 20.8447 0.861745 0.351715
37 1 21.7309 0.180404 0.316474
38 1 21.7296 0.172616 -0.710755
39 1 21.9335 -0.812841 -0.775653
40 1 22.1423 -0.573081 -1.73372
41 1 21.244 -0.86594 -1.47607
42 1 21.0512 -1.82875 -1.28979
43 1 21.7501 -2.48869 -1.08004
44 1 21.8643 -3.15903 -1.81365
45 1 22.4357 -2.8763 -2.68983
46 1 23.034 -2.20143 -2.88189
47 1 22.6291 -2.04514 -2.15803
48 1 22.9068 -1.9699 -1.29468
49 1 23.6665 -2.52224 -1.66096
50 1 23.6417 -1.40016 -1.88647
ITEM: TIMESTEP
6000
ITEM: NUMBER OF ATOMS
50
ITEM: BOX BOUNDS pp pp pp
-5.0000000000000000e+01 5.0000000000000000e+01
-5.0000000000000000e+01 5.0000000000000000e+01
-5.0000000000000000e+01 5.0000000000000000e+01
ITEM: ATOMS id type x y z
1 1 23.7493 -1.60012 0.499551
2 1 24.401 -0.755859 0.641903
3 1 24.0458 0.248953 0.698859
4 1 23.2616 0.592174 0.372903
5 1 23.1177 1.6031 0.15856
6 1 24.0235 1.34118 0.596124
7 1 23.5447 1.19862 1.51433
8 1 23.2952 0.430867 2.10172
9 1 23.0143 1.19698 2.70393
10 1 22.02 1.32011 3.15082
11 1 21.401 1.01122 2.34954
12 1 21.2663 0.667467 1.34522
13 1 21.5002 0.0117976 2.00785
14 1 20.6946 -0.561223 2.24588
15 1 21.351 -1.32122 1.96544
16 1 20.5279 -1.65798 1.46454
17 1 21.3467 -1.50817 0.934668
18 1 21.2301 -0.561163 1.15364
19 1 20.2341 -0.534122 0.897291
20 1 20.3535 -1.13359 0.284858
21 1 19.3493 -1.0209 0.806419
22 1 18.7097 -0.982261 1.52246
23 1 18.7508 -1.98103 1.14621
24 1 18.7553 -1.57781 0.252629
25 1 19.7958 -1.95249 -0.007966
26 1 19.7928 -1.35006 -0.898248
27 1 20.1745 -0.728794 -1.61318
28 1 19.3502 -0.74426 -2.01459
29 1 19.64 0.236036 -2.11242
30 1 19.767 -0.268916 -2.99605
31 1 20.4235 -0.131863 -3.72743
32 1 21.0931 0.42591 -3.09421
33 1 20.7631 -0.206187 -2.27657
34 1 21.3953 -0.0237586 -1.57854
35 1 20.6439 0.204288 -0.718171
36 1 20.8912 -0.695042 -0.5466
37 1 21.167 -1.58347 -0.610569
38 1 21.6683 -1.21683 -1.37068
39 1 22.5397 -0.526121 -1.53589
40 1 23.398 0.134933 -1.65674
41 1 22.547 0.569135 -1.58203
42 1 23.3057 0.893238 -0.91789
43 1 24.1892 0.451199 -0.494929
44 1 25.172 0.0636613 -0.694693
45 1 25.3617 0.754379 0.159462
46 1 25.1968 1.62782 0.640179
47 1 26.1042 1.71005 0.17165
48 1 25.9116 2.76773 0.069925
49 1 25.6616 2.59441 -0.729013
50 1 26.6034 2.568 -0.68017
ITEM: TIMESTEP
7000
ITEM: NUMBER OF ATOMS
50
ITEM: BOX BOUNDS pp pp pp
-5.0000000000000000e+01 5.0000000000000000e+01
-5.0000000000000000e+01 5.0000000000000000e+01
-5.0000000000000000e+01 5.0000000000000000e+01
ITEM: ATOMS id type x y z
1 1 22.9552 -2.54869 3.19208
2 1 23.3353 -2.83679 4.03498
3 1 23.8552 -1.91557 4.20176
4 1 23.7379 -1.0381 3.7732
5 1 22.8263 -1.39065 3.22544
6 1 21.8338 -1.06952 3.26138
7 1 21.9266 -0.192806 3.05189
8 1 22.1735 -0.385349 2.11436
9 1 22.5095 -1.10262 1.33696
10 1 21.7003 -0.679165 0.796052
11 1 22.2973 0.0628527 0.8571
12 1 21.525 0.619852 1.16329
13 1 20.6761 0.295046 0.760011
14 1 20.5566 0.451338 -0.226032
15 1 19.7603 1.27975 0.233121
16 1 20.2014 1.36752 -0.592914
17 1 19.7664 0.586542 -1.00581
18 1 20.4602 0.114354 -1.30757
19 1 21.4293 0.323714 -1.22823
20 1 21.2127 1.43275 -1.19361
21 1 20.3605 1.15506 -1.71223
22 1 20.4385 0.433892 -2.4423
23 1 21.2433 1.11413 -2.26107
24 1 21.0548 1.19044 -3.33935
25 1 20.9045 0.381026 -3.58344
26 1 20.5266 -0.518084 -3.3375
27 1 21.6356 -0.322788 -3.20773
28 1 22.492 -0.431177 -2.75677
29 1 22.0635 -1.20434 -2.47848
30 1 21.9967 -2.22402 -2.14311
31 1 22.8589 -1.70203 -1.87147
32 1 22.9105 -2.73755 -1.40983
33 1 22.6951 -3.26621 -0.625369
34 1 22.7362 -2.48141 -0.115507
35 1 23.1818 -2.02679 -0.758123
36 1 22.2228 -2.0344 -1.01483
37 1 22.3783 -1.06388 -0.658946
38 1 22.3047 -0.319354 -1.36982
39 1 22.8545 0.573047 -1.75226
40 1 23.7355 0.469324 -1.22907
41 1 22.9398 0.142086 -0.760429
42 1 22.1824 0.0336995 -0.246383
43 1 21.8477 1.02802 -0.175579
44 1 22.029 1.84158 0.401084
45 1 22.6889 2.70249 0.581128
46 1 22.7935 3.25851 1.3573
47 1 22.714 3.73439 2.24915
48 1 23.747 3.37643 2.41881
49 1 23.2337 2.48902 2.53381
50 1 22.991 3.03443 3.26085
ITEM: TIMESTEP
8000
ITEM: NUMBER OF ATOMS
50
ITEM: BOX BOUNDS pp pp pp
-5.0000000000000000e+01 5.0000000000000000e+01
-5.0000000000000000e+01 5.0000000000000000e+01
-5.0000000000000000e+01 5.0000000000000000e+01
ITEM: ATOMS id type x y z
1 1 22.0066 -1.8605 4.85334
2 1 22.3457 -2.3178 4.03247
3 1 21.9508 -3.16414 4.64871
4 1 21.2851 -3.22512 3.88891
5 1 21.3192 -2.17766 3.70049
6 1 20.9994 -1.35188 3.23511
7 1 21.2792 -1.2306 2.32879
8 1 21.2448 -0.258381 2.66952
9 1 22.0032 -0.00414442 2.21452
10 1 21.5403 -0.470114 1.50048
11 1 20.7669 -0.298972 0.810585
12 1 21.2196 -0.445095 -0.0849263
13 1 20.6699 0.356051 -0.307101
14 1 20.3309 1.49464 -0.333653
15 1 21.2749 1.38586 -0.824915
16 1 21.6374 1.11649 -1.80842
17 1 21.988 2.05021 -1.55589
18 1 22.5493 1.60481 -2.26043
19 1 23.2918 1.08917 -1.99174
20 1 23.6734 0.178369 -1.72872
21 1 24.4059 0.434205 -2.17985
22 1 24.3932 0.729609 -3.1539
23 1 24.5588 -0.307235 -3.24702
24 1 25.2229 0.293776 -3.41514
25 1 25.4238 0.573663 -2.44942
26 1 25.2357 -0.363222 -2.2095
27 1 24.3908 -0.665433 -1.81399
28 1 23.6871 -0.622655 -2.58098
29 1 22.7878 -0.589582 -2.58821
30 1 22.2394 -0.611849 -1.80796
31 1 22.7922 -1.37852 -1.84885
32 1 23.8087 -1.41663 -1.62863
33 1 23.3114 -2.05316 -1.12439
34 1 22.7175 -1.7825 -0.384702
35 1 22.2783 -1.05636 0.104295
36 1 22.5298 -0.280592 -0.606039
37 1 21.9295 0.554112 -0.768991
38 1 22.5019 0.45413 -1.40134
39 1 23.3295 0.821185 -0.856889
40 1 22.8041 1.66414 -0.585
41 1 22.3869 1.52817 0.218732
42 1 21.8291 1.25773 1.0387
43 1 21.0509 1.72644 1.50462
44 1 20.7101 0.818171 1.54438
45 1 20.0334 1.11059 0.938763
46 1 19.3001 1.53406 1.4018
47 1 19.1356 0.50205 1.71718
48 1 18.4109 0.645381 1.02065
49 1 17.9413 1.5433 0.921827
50 1 17.9771 2.46583 1.25273
ITEM: TIMESTEP
9000
ITEM: NUMBER OF ATOMS
50
ITEM: BOX BOUNDS pp pp pp
-5.0000000000000000e+01 5.0000000000000000e+01
-5.0000000000000000e+01 5.0000000000000000e+01
-5.0000000000000000e+01 5.0000000000000000e+01
ITEM: ATOMS id type x y z
1 1 20.0309 0.317419 1.01928
2 1 19.1937 0.596701 0.766243
3 1 18.2713 0.406658 0.582295
4 1 18.4198 0.0372501 1.46317
5 1 18.7646 -0.526742 2.2702
6 1 18.6385 -1.04379 1.34005
7 1 18.7902 -1.21548 0.408431
8 1 19.1879 -0.481696 0.867108
9 1 19.9142 -0.375499 0.164454
10 1 20.1852 -0.034979 -0.640165
11 1 20.7686 -0.581563 -1.09497
12 1 21.6877 -0.448422 -0.74112
13 1 22.4095 -0.484858 -1.53645
14 1 23.3529 -0.22016 -1.71666
15 1 22.9713 0.0170044 -2.68392
16 1 22.7395 0.891715 -2.8031
17 1 22.6146 1.04199 -1.8678
18 1 22.4258 0.368845 -1.11077
19 1 22.8875 1.103 -0.560891
20 1 23.3893 0.984486 0.211549
21 1 23.8125 0.209868 0.803342
22 1 24.3996 0.600511 0.16019
23 1 24.6358 0.336776 -0.723652
24 1 25.4499 0.402115 -0.007544
25 1 26.1325 -0.221209 0.473479
26 1 25.8849 -1.07471 0.351048
27 1 26.228 -0.909329 -0.633793
28 1 25.415 -1.51267 -0.611359
29 1 24.5618 -1.4166 -0.0574651
30 1 25.07 -0.525039 -0.199161
31 1 24.7562 -0.554658 -1.22622
32 1 24.6828 -1.47263 -1.47564
33 1 23.8203 -1.08916 -1.1982
34 1 24.045 -0.521357 -0.426372
35 1 23.1008 -0.510427 -0.611255
36 1 23.0761 -0.337974 0.293702
37 1 22.1919 -0.816621 0.650024
38 1 22.7733 -0.684032 1.49864
39 1 22.0096 -0.167524 2.04291
40 1 21.3234 0.510017 2.41231
41 1 20.5918 -0.155651 2.21672
42 1 19.6436 0.271055 2.32419
43 1 19.8633 1.07217 1.65259
44 1 19.7133 1.82063 1.12671
45 1 19.4403 1.50429 0.245833
46 1 19.904 0.70092 -0.131775
47 1 19.5674 1.45044 -0.877202
48 1 20.6303 1.43756 -1.00343
49 1 21.3181 0.514135 -1.15224
50 1 21.8154 0.787226 -0.253292
ITEM: TIMESTEP
10000
ITEM: NUMBER OF ATOMS
50
ITEM: BOX BOUNDS pp pp pp
-5.0000000000000000e+01 5.0000000000000000e+01
-5.0000000000000000e+01 5.0000000000000000e+01
-5.0000000000000000e+01 5.0000000000000000e+01
ITEM: ATOMS id type x y z
1 1 19.1177 -1.9805 0.0554463
2 1 19.5752 -1.13243 -0.189866
3 1 20.2192 -1.08063 -1.02918
4 1 20.375 -2.08788 -1.15104
5 1 20.4851 -1.74247 -2.02089
6 1 21.012 -1.00343 -1.76432
7 1 20.5964 0.0251526 -1.87156
8 1 21.5011 -0.0734824 -2.23904
9 1 22.3042 0.561921 -2.16446
10 1 22.6182 1.11248 -1.60787
11 1 22.6267 0.0528026 -1.30704
12 1 23.3795 0.666527 -1.16747
13 1 23.4996 1.66243 -0.957752
14 1 22.9381 2.29729 -0.921541
15 1 22.0981 1.96689 -1.12625
16 1 22.4641 1.50521 -0.245282
17 1 23.2494 0.96788 -0.177096
18 1 23.0444 0.0693766 -0.243375
19 1 24.1169 0.190038 -0.336903
20 1 23.996 0.301465 0.677365
21 1 22.9579 0.525956 0.737705
22 1 23.1479 -0.19965 1.28188
23 1 22.2155 -0.0622538 1.2339
24 1 21.6322 -0.728142 1.53903
25 1 21.8741 -0.163586 2.2768
26 1 22.6543 -0.586753 2.63671
27 1 22.735 -0.386424 3.58418
28 1 23.1755 0.368015 2.91911
29 1 23.5827 -0.623427 2.92506
30 1 24.1472 -1.28641 3.0951
31 1 23.6333 -1.51205 2.21675
32 1 23.0792 -1.61006 1.49979
33 1 22.2359 -1.57262 2.21568
34 1 21.6136 -1.88661 1.67175
35 1 21.8354 -1.78211 0.810561
36 1 22.1998 -1.63036 -0.197872
37 1 21.2049 -2.05232 -0.261281
38 1 21.3049 -1.19897 -0.652271
39 1 21.482 -0.227623 -0.790001
40 1 21.9207 0.342029 0.000847777
41 1 21.7559 0.749483 0.688049
42 1 21.2127 1.38932 1.00866
43 1 20.853 1.89817 0.242518
44 1 21.3867 1.15806 -0.26492
45 1 21.6833 0.882032 -1.1115
46 1 20.7676 0.781042 -1.10045
47 1 21.0733 1.6508 -1.3078
48 1 21.503 2.46864 -1.87499
49 1 21.7971 1.56478 -2.31051
50 1 22.6184 1.45241 -2.92436
ITEM: TIMESTEP
11000
ITEM: NUMBER OF ATOMS
50
ITEM: BOX BOUNDS pp pp pp
-5.0000000000000000e+01 5.0000000000000000e+01
-5.0000000000000000e+01 5.0000000000000000e+01
-5.0000000000000000e+01 5.0000000000000000e+01
ITEM: ATOMS id type x y z
1 1 23.9307 -1.00381 -1.19291
2 1 24.1256 -1.93588 -1.2742
3 1 23.9458 -1.54039 -0.338007
4 1 24.2159 -0.685677 -0.0536569
5 1 24.8115 -0.589068 -0.774676
6 1 24.5864 0.410645 -0.95986
7 1 23.8533 0.0385371 -1.58694
8 1 23.7223 0.882593 -1.43018
9 1 24.6701 0.737878 -2.05809
10 1 24.4449 1.65531 -1.96218
11 1 24.332 1.97589 -1.08236
12 1 23.598 2.09591 -1.54445
13 1 22.8409 1.86184 -0.760291
14 1 23.6436 1.24807 -0.522775
15 1 23.2027 0.587058 0.249419
16 1 22.6896 1.22812 0.730883
17 1 23.0863 0.752978 1.57367
18 1 22.2234 0.479544 1.2352
19 1 21.8275 0.150859 2.10181
20 1 20.9186 0.144204 1.44389
21 1 21.3277 0.41709 0.711695
22 1 20.8057 1.17008 0.995359
23 1 20.104 0.938679 0.462413
24 1 19.8954 0.745023 1.33066
25 1 20.029 0.192982 2.26276
26 1 20.036 -0.23093 3.2365
27 1 19.1455 0.133287 2.75211
28 1 18.7253 -0.644803 2.76336
29 1 18.5332 -0.367601 1.71782
30 1 18.1374 -1.13351 1.10712
31 1 18.6822 -1.71675 0.56765
32 1 19.0021 -1.93817 1.43791
33 1 19.9185 -1.88841 1.85633
34 1 20.812 -1.54797 2.21623
35 1 21.3889 -1.1129 1.42554
36 1 22.4297 -1.21318 1.19448
37 1 23.4531 -1.15468 0.937081
38 1 23.0968 -1.13439 0.113384
39 1 22.4391 -0.229541 -0.0177309
40 1 22.4437 0.409293 -0.83503
41 1 22.032 1.00909 -0.0916545
42 1 21.6138 -0.0555989 -0.516143
43 1 21.2442 -0.515552 -1.31654
44 1 22.1684 -0.787094 -1.67119
45 1 22.7642 -0.0346091 -1.69315
46 1 23.2633 -0.176903 -2.59376
47 1 22.7573 -0.115113 -3.52012
48 1 22.3172 0.584366 -2.89177
49 1 21.565 1.02185 -2.38298
50 1 21.7 0.881367 -1.35261
ITEM: TIMESTEP
12000
ITEM: NUMBER OF ATOMS
50
ITEM: BOX BOUNDS pp pp pp
-5.0000000000000000e+01 5.0000000000000000e+01
-5.0000000000000000e+01 5.0000000000000000e+01
-5.0000000000000000e+01 5.0000000000000000e+01
ITEM: ATOMS id type x y z
1 1 28.1835 -2.29643 1.29652
2 1 27.2694 -2.60792 1.61836
3 1 27.0354 -1.60431 1.91354
4 1 26.9345 -1.11861 1.14855
5 1 26.1053 -0.909017 1.51331
6 1 25.3399 -1.3667 1.51476
7 1 24.4334 -1.56567 1.51709
8 1 23.6441 -1.00525 1.59388
9 1 23.4498 -0.100114 1.4289
10 1 22.4972 -0.434927 1.72513
11 1 22.3446 0.58513 1.60795
12 1 21.5067 0.280047 1.08799
13 1 20.7647 -0.190207 1.71071
14 1 19.8686 0.300244 1.60586
15 1 19.9794 0.825206 0.817774
16 1 20.6924 1.54881 0.42128
17 1 20.1837 1.82335 -0.217779
18 1 20.6679 1.9458 -1.17709
19 1 20.903 2.64411 -1.73696
20 1 20.11 2.6609 -2.32452
21 1 19.722 1.61026 -2.11535
22 1 18.8971 1.88555 -2.04695
23 1 18.8517 1.3275 -1.22895
24 1 19.0344 0.931134 -0.186981
25 1 18.8771 0.705467 0.726046
26 1 18.6156 -0.132973 0.101166
27 1 18.2376 -0.784388 -0.45525
28 1 18.9306 -0.228068 -1.09951
29 1 19.5067 -0.0302775 -0.23438
30 1 20.3639 -0.572678 -0.117338
31 1 20.1263 -0.377381 -1.02563
32 1 20.6513 -0.991417 -1.76066
33 1 21.0015 0.0064227 -2.24478
34 1 21.1085 0.940661 -1.87881
35 1 21.5977 0.433828 -1.26115
36 1 20.8334 0.30993 -0.507064
37 1 21.2621 -0.694808 -0.569026
38 1 21.594 -0.271267 0.184649
39 1 22.5326 0.0503665 0.657928
40 1 23.3438 0.378776 0.200898
41 1 23.3012 -0.575801 -0.201749
42 1 22.68 -1.11967 -0.0384557
43 1 23.0544 -1.48987 0.717451
44 1 23.8774 -1.899 0.28516
45 1 24.2979 -0.998207 0.520452
46 1 24.5341 -0.371026 -0.483643
47 1 23.7814 -0.0741823 -1.27305
48 1 24.0026 0.596835 -0.56931
49 1 23.0675 0.509257 -0.707134
50 1 22.902 1.51059 -0.453811
ITEM: TIMESTEP
13000
ITEM: NUMBER OF ATOMS
50
ITEM: BOX BOUNDS pp pp pp
-5.0000000000000000e+01 5.0000000000000000e+01
-5.0000000000000000e+01 5.0000000000000000e+01
-5.0000000000000000e+01 5.0000000000000000e+01
ITEM: ATOMS id type x y z
1 1 23.911 -0.566205 3.86188
2 1 23.6413 0.300253 4.50131
3 1 23.3732 0.570564 3.53223
4 1 23.1333 -0.227268 2.80649
5 1 23.2916 -1.12366 3.1572
6 1 22.3089 -0.648064 3.23541
7 1 21.5841 -0.812049 2.66314
8 1 22.272 -0.374507 2.19515
9 1 21.7 0.344523 2.46529
10 1 21.2742 -0.270494 1.83249
11 1 20.75 -0.756726 1.01149
12 1 21.6173 -0.629679 0.923733
13 1 22.4109 -0.169303 0.506454
14 1 22.1969 0.888677 0.402134
15 1 21.5455 0.357657 1.01478
16 1 21.5863 0.171524 0.0180554
17 1 20.5733 0.110137 0.03339
18 1 19.6098 0.455368 -0.08667
19 1 19.3216 1.41361 -0.215298
20 1 20.0235 1.79288 -0.689246
21 1 19.9045 2.16175 -1.65385
22 1 19.6711 1.02508 -1.54513
23 1 20.75 0.865854 -1.45669
24 1 21.2063 0.0681551 -1.65952
25 1 20.7258 -0.888793 -1.78336
26 1 20.6147 -0.956471 -2.89356
27 1 20.5638 0.0793814 -2.66706
28 1 20.0635 0.895054 -2.66429
29 1 20.5882 0.847071 -3.56845
30 1 20.9795 1.44733 -2.80889
31 1 21.6861 1.06852 -2.29008
32 1 21.9627 0.130918 -2.59823
33 1 22.8154 -0.405171 -2.61438
34 1 22.0446 -0.869962 -2.10602
35 1 22.4136 -0.134859 -1.58909
36 1 23.3513 -0.467507 -1.52067
37 1 23.5129 0.388431 -1.90383
38 1 23.6423 0.393234 -0.955654
39 1 23.0197 0.548572 -0.322156
40 1 22.7813 -0.345418 -0.608678
41 1 22.3477 -1.3141 -0.332444
42 1 21.8929 -1.54566 0.507172
43 1 22.6856 -1.98592 0.524762
44 1 23.511 -1.6348 0.924018
45 1 23.2512 -0.863094 0.476282
46 1 24.136 -0.588589 1.02492
47 1 25.094 -0.179462 0.965997
48 1 24.4 -0.0618111 0.138098
49 1 23.8041 0.767589 0.581501
50 1 22.9556 0.727426 1.22989
ITEM: TIMESTEP
14000
ITEM: NUMBER OF ATOMS
50
ITEM: BOX BOUNDS pp pp pp
-5.0000000000000000e+01 5.0000000000000000e+01
-5.0000000000000000e+01 5.0000000000000000e+01
-5.0000000000000000e+01 5.0000000000000000e+01
ITEM: ATOMS id type x y z
1 1 18.1906 -0.852606 4.57779
2 1 18.5047 -0.299307 3.86534
3 1 18.1835 -0.265026 2.81244
4 1 18.7373 -0.165214 2.00124
5 1 19.6757 -0.0824795 2.10024
6 1 19.3791 0.74769 1.90517
7 1 20.1181 1.34442 2.17518
8 1 20.5909 0.469041 1.75358
9 1 21.5392 0.791716 1.84917
10 1 22.0102 0.656968 0.862515
11 1 21.2921 -0.00438345 0.825366
12 1 21.6315 0.353106 -0.0593354
13 1 21.2958 -0.507177 -0.123824
14 1 22.1783 -0.93784 0.382217
15 1 22.537 -0.140165 0.0027334
16 1 22.2741 0.0424122 -0.87943
17 1 21.6244 -0.741377 -1.07004
18 1 20.7807 -1.20183 -1.07927
19 1 20.9926 -1.81585 -1.82939
20 1 21.5777 -1.07158 -2.22357
21 1 20.8379 -1.28999 -2.94497
22 1 20.7551 -0.564856 -3.63388
23 1 21.7053 -0.788345 -3.30211
24 1 22.2261 -0.232096 -2.65627
25 1 21.8417 0.284552 -1.76553
26 1 21.5533 0.731711 -0.952019
27 1 22.3133 0.996965 -1.28467
28 1 22.7873 1.87807 -1.25325
29 1 23.405 1.15651 -1.78858
30 1 23.2301 1.46549 -2.59142
31 1 23.7682 1.40693 -3.50606
32 1 23.4852 0.562146 -3.14478
33 1 24.0979 0.327608 -2.34278
34 1 23.0928 0.127916 -2.11444
35 1 23.4614 -0.673635 -1.80845
36 1 23.2497 -1.17677 -0.989738
37 1 23.467 -0.245993 -0.703212
38 1 24.3399 -0.307003 -1.20137
39 1 24.6175 0.187107 -0.297187
40 1 23.8845 0.756781 -0.641459
41 1 23.5309 0.663923 0.36832
42 1 24.1736 0.207806 1.03331
43 1 23.6732 -0.350799 0.417725
44 1 22.9851 0.220949 1.03184
45 1 22.6371 -0.753958 1.4264
46 1 22.1924 -0.875613 2.19344
47 1 22.6529 -0.0182574 2.61721
48 1 23.2456 -0.268209 3.36024
49 1 23.3171 0.391936 4.04664
50 1 22.8593 -0.141394 4.57893
ITEM: TIMESTEP
15000
ITEM: NUMBER OF ATOMS
50
ITEM: BOX BOUNDS pp pp pp
-5.0000000000000000e+01 5.0000000000000000e+01
-5.0000000000000000e+01 5.0000000000000000e+01
-5.0000000000000000e+01 5.0000000000000000e+01
ITEM: ATOMS id type x y z
1 1 17.3895 0.184423 -1.01262
2 1 18.3158 0.0584803 -0.672472
3 1 17.5234 -0.148277 0.0222688
4 1 17.4023 0.755872 -0.215775
5 1 17.3344 1.36232 0.662824
6 1 17.4616 0.447577 0.918906
7 1 18.2514 0.101618 1.63978
8 1 18.142 -0.654987 2.34726
9 1 19.0568 -1.08953 2.17558
10 1 19.4774 -1.79619 2.57319
11 1 19.9032 -1.84341 1.50169
12 1 20.8611 -2.04467 1.10197
13 1 21.5768 -1.34621 0.787916
14 1 21.3257 -1.73235 -0.190089
15 1 21.4812 -0.6122 -0.0515522
16 1 21.7498 -1.08096 -0.901017
17 1 22.3337 -1.68797 -0.270676
18 1 23.2104 -1.18274 -0.519325
19 1 22.4641 -0.743647 0.0322954
20 1 22.1291 -0.00125474 -0.573397
21 1 22.0652 -0.227355 -1.49791
22 1 22.674 -0.88145 -2.02762
23 1 22.7148 -1.70672 -1.30424
24 1 23.5355 -1.28931 -1.74406
25 1 23.5732 -0.345631 -1.4217
26 1 23.1026 0.509999 -1.72234
27 1 24.0844 0.249056 -1.96133
28 1 24.8469 0.659064 -1.4466
29 1 24.2273 1.3559 -1.99808
30 1 24.2107 1.35401 -1.2031
31 1 24.9544 1.68314 -1.06541
32 1 24.6483 2.04113 -0.0935929
33 1 25.1103 1.18511 0.377048
34 1 25.1968 0.297232 -0.212961
35 1 24.8995 -0.443525 -0.886994
36 1 25.3256 -0.729535 -0.097192
37 1 24.799 -0.445317 0.718353
38 1 23.7034 -0.222831 0.866155
39 1 24.0342 0.636525 1.40882
40 1 23.9376 1.08315 0.624696
41 1 24.1216 0.291104 0.0191824
42 1 23.4578 0.708306 -0.604695
43 1 22.8233 0.467572 0.102541
44 1 22.5283 1.35897 0.0440699
45 1 21.8592 2.12467 0.183181
46 1 22.0501 2.06397 1.17348
47 1 21.8326 1.28105 0.727247
48 1 21.8173 0.229216 0.503167
49 1 21.6719 -0.428221 1.2164
50 1 21.3044 0.194829 1.96674
ITEM: TIMESTEP
16000
ITEM: NUMBER OF ATOMS
50
ITEM: BOX BOUNDS pp pp pp
-5.0000000000000000e+01 5.0000000000000000e+01
-5.0000000000000000e+01 5.0000000000000000e+01
-5.0000000000000000e+01 5.0000000000000000e+01
ITEM: ATOMS id type x y z
1 1 17.5752 -1.59807 -0.936348
2 1 17.8041 -0.652751 -1.23589
3 1 18.6862 -0.864817 -0.545234
4 1 19.5464 -0.451708 -0.615713
5 1 20.072 -0.944423 -1.24545
6 1 19.4743 -0.741159 -2.06341
7 1 19.4317 -0.657178 -3.15213
8 1 19.22 -0.368938 -4.07975
9 1 19.3212 -1.36294 -3.97553
10 1 18.7238 -1.70791 -3.17216
11 1 19.6216 -1.58308 -2.73077
12 1 20.3688 -2.11153 -2.36898
13 1 20.518 -1.07886 -2.36015
14 1 20.6407 -0.282233 -2.06257
15 1 21.3601 -0.457992 -1.36842
16 1 20.8001 -0.464932 -0.57719
17 1 20.748 -0.21705 0.413919
18 1 21.5475 -0.817378 0.342595
19 1 22.1452 0.0150198 0.335855
20 1 22.5822 -0.452563 1.16649
21 1 22.0115 -0.542609 1.93348
22 1 22.9178 -0.700737 2.53816
23 1 23.875 -0.396608 2.8048
24 1 24.1237 -0.87127 1.905
25 1 24.0768 -0.141038 1.13515
26 1 24.3327 -0.960211 0.828401
27 1 24.6958 -0.401259 0.199325
28 1 25.2868 0.353897 0.494187
29 1 24.447 0.709753 0.643381
30 1 25.3934 1.29605 1.00418
31 1 26.1029 0.947416 1.53533
32 1 26.4504 -0.06078 1.59757
33 1 25.8215 0.0841282 2.35754
34 1 25.086 0.0670452 2.96881
35 1 24.7905 0.793223 3.51015
36 1 25.5081 1.2271 2.92949
37 1 24.9066 0.790166 2.18241
38 1 24.0322 1.14703 2.07436
39 1 23.2892 0.748831 1.58875
40 1 23.1177 1.03752 0.54925
41 1 23.7331 1.0443 -0.193657
42 1 22.7831 0.92785 -0.492863
43 1 22.6412 0.984492 -1.45979
44 1 21.8938 0.931252 -0.898414
45 1 21.2901 0.942555 -0.137819
46 1 20.4796 0.890046 0.324884
47 1 19.805 1.2675 0.653022
48 1 20.0729 1.7657 -0.0855184
49 1 19.3697 1.54846 -0.789545
50 1 19.9786 1.37068 -1.46919
ITEM: TIMESTEP
17000
ITEM: NUMBER OF ATOMS
50
ITEM: BOX BOUNDS pp pp pp
-5.0000000000000000e+01 5.0000000000000000e+01
-5.0000000000000000e+01 5.0000000000000000e+01
-5.0000000000000000e+01 5.0000000000000000e+01
ITEM: ATOMS id type x y z
1 1 18.6775 -0.688122 -3.56217
2 1 17.932 -1.16727 -2.99677
3 1 18.6696 -1.70832 -3.04093
4 1 18.5761 -1.94141 -3.9802
5 1 19.5267 -1.57601 -3.72518
6 1 20.173 -2.10816 -2.9343
7 1 20.5278 -1.17883 -3.22479
8 1 19.6762 -0.739011 -2.97479
9 1 19.5996 0.311156 -2.76963
10 1 20.5563 -0.0700527 -3.0058
11 1 21.3987 0.0772559 -3.47781
12 1 21.9122 -0.521408 -2.85694