ITEM: TIMESTEP
0
ITEM: NUMBER OF ATOMS
50
ITEM: BOX BOUNDS pp pp pp
-5.0000000000000000e+01 5.0000000000000000e+01
-5.0000000000000000e+01 5.0000000000000000e+01
-5.0000000000000000e+01 5.0000000000000000e+01
ITEM: ATOMS id type x y z
1 1 -2.33761 0 0
2 1 -1.33923 0 0
3 1 -0.342475 0 0
4 1 0.654127 0 0
5 1 1.65059 0 0
6 1 2.6469 0 0
7 1 3.64308 0 0
8 1 4.6391 0 0
9 1 5.63499 0 0
10 1 6.63073 0 0
11 1 7.62633 0 0
12 1 8.62178 0 0
13 1 9.6171 0 0
14 1 10.6123 0 0
15 1 11.6073 0 0
16 1 12.6022 0 0
17 1 13.5969 0 0
18 1 14.5915 0 0
19 1 15.586 0 0
20 1 16.5803 0 0
21 1 17.5742 0 0
22 1 18.5688 0 0
23 1 19.5634 0 0
24 1 20.5583 0 0
25 1 21.5529 0 0
26 1 22.5471 0 0
27 1 23.5417 0 0
28 1 24.5366 0 0
29 1 25.5312 0 0
30 1 26.5258 0 0
31 1 27.5197 0 0
32 1 28.514 0 0
33 1 29.5085 0 0
34 1 30.5031 0 0
35 1 31.4978 0 0
36 1 32.4927 0 0
37 1 33.4877 0 0
38 1 34.4829 0 0
39 1 35.4782 0 0
40 1 36.4737 0 0
41 1 37.4693 0 0
42 1 38.465 0 0
43 1 39.4609 0 0
44 1 40.4569 0 0
45 1 41.4531 0 0
46 1 42.4494 0 0
47 1 43.4459 0 0
48 1 44.4425 0 0
49 1 45.4392 0 0
50 1 46.4376 0 0
ITEM: TIMESTEP
1000
ITEM: NUMBER OF ATOMS
50
ITEM: BOX BOUNDS pp pp pp
-5.0000000000000000e+01 5.0000000000000000e+01
-5.0000000000000000e+01 5.0000000000000000e+01
-5.0000000000000000e+01 5.0000000000000000e+01
ITEM: ATOMS id type x y z
1 1 7.4456 1.10091 -0.0149994
2 1 8.06228 0.7107 0.503752
3 1 9.01559 0.503079 0.304543
4 1 9.79481 1.10246 0.0110366
5 1 9.24867 1.7522 0.55367
6 1 9.84556 0.951575 1.17055
7 1 10.0192 0.274767 0.633659
8 1 10.1405 -0.131348 -0.275801
9 1 11.0505 0.0746763 0.207329
10 1 10.7815 0.950162 -0.0566328
11 1 10.9603 0.236171 -0.772634
12 1 12.0403 0.146205 -0.67128
13 1 12.7284 0.000818955 -1.25506
14 1 12.7847 -1.00946 -1.0883
15 1 13.6115 -0.515422 -0.696213
16 1 14.4752 -0.139363 -0.272212
17 1 15.2467 -0.359155 -0.811665
18 1 16.1894 -0.357437 -0.357271
19 1 17.1213 -0.226623 -0.488123
20 1 17.9351 -0.648922 -0.109915
21 1 18.7127 -0.406642 -0.707689
22 1 19.0398 -0.529892 0.238159
23 1 19.7393 -1.08752 -0.0935135
24 1 20.1166 -0.941667 0.785486
25 1 20.5872 -1.69623 0.330121
26 1 21.4791 -1.24681 0.0902317
27 1 22.3754 -1.49494 -0.209504
28 1 23.2939 -1.37175 -0.661668
29 1 24.2165 -1.52392 -1.00155
30 1 25.0946 -1.04584 -1.30398
31 1 26.1058 -1.09409 -1.29931
32 1 27.0687 -0.889217 -1.23776
33 1 27.8666 -0.409411 -1.33286
34 1 28.8017 -0.122877 -1.20083
35 1 29.6426 -0.140358 -0.698022
36 1 30.5372 0.419968 -0.71246
37 1 30.9167 0.306056 0.115353
38 1 31.8281 0.172998 0.00194918
39 1 31.6922 1.07488 -0.264373
40 1 32.5025 0.903112 0.359199
41 1 33.4002 0.540221 0.0658515
42 1 33.776 0.753047 0.972678
43 1 34.3382 1.04881 0.159217
44 1 34.9765 0.577455 0.708575
45 1 35.9554 0.61009 0.849035
46 1 36.3056 0.0165219 1.72377
47 1 36.8103 0.982086 1.66346
48 1 35.6728 1.28915 1.7359
49 1 35.2968 0.418257 1.81196
50 1 35.854 0.472504 2.59815
ITEM: TIMESTEP
2000
ITEM: NUMBER OF ATOMS
50
ITEM: BOX BOUNDS pp pp pp
-5.0000000000000000e+01 5.0000000000000000e+01
-5.0000000000000000e+01 5.0000000000000000e+01
-5.0000000000000000e+01 5.0000000000000000e+01
ITEM: ATOMS id type x y z
1 1 21.4915 -0.16528 -0.310459
2 1 21.5855 0.928636 -0.395494
3 1 20.6777 0.497948 -0.523298
4 1 20.432 0.46309 0.356992
5 1 20.2921 1.1211 0.937575
6 1 19.6655 0.568928 1.51431
7 1 19.2687 0.910705 0.857682
8 1 18.5159 0.149429 0.966922
9 1 17.9142 0.977613 0.647355
10 1 18.7362 1.20662 -0.138337
11 1 18.2405 0.398395 -0.55708
12 1 18.5488 -0.226138 -0.137433
13 1 19.27 0.0342446 0.0708176
14 1 19.1986 0.371708 -0.990723
15 1 18.536 -0.318745 -1.16613
16 1 19.2675 -0.955143 -1.35363
17 1 19.8242 -0.554476 -0.735738
18 1 20.4314 -0.783928 -1.49485
19 1 20.8744 -1.56634 -1.66508
20 1 21.5504 -2.09688 -1.24306
21 1 22.0953 -1.51367 -0.87063
22 1 21.4387 -0.747813 -1.12322
23 1 21.4227 -0.719277 -2.19834
24 1 20.9119 0.183044 -1.81759
25 1 21.6072 0.787794 -1.50153
26 1 22.492 0.646901 -1.15037
27 1 22.2566 -0.0758017 -1.73253
28 1 22.7173 -0.946602 -1.66325
29 1 23.409 -0.416166 -1.01444
30 1 23.9156 0.305812 -1.39437
31 1 24.4413 -0.179152 -0.766009
32 1 24.1588 0.343733 -0.0199174
33 1 23.4218 -0.454857 0.125195
34 1 23.9318 -1.13191 -0.174308
35 1 24.9517 -1.10654 -0.362928
36 1 25.8921 -0.547381 -0.768636
37 1 25.8845 -0.126975 0.276355
38 1 25.6019 -0.0789708 1.35545
39 1 24.9665 -0.0169214 0.77263
40 1 25.151 -1.05189 0.859485
41 1 24.5494 -0.600055 1.49634
42 1 23.7563 -0.158497 1.73095
43 1 23.5897 0.248035 2.6332
44 1 24.0122 1.0151 3.04865
45 1 23.3917 1.17612 2.32962
46 1 24.12 1.64044 1.86271
47 1 24.3877 0.727754 1.9859
48 1 23.8703 0.787643 1.00436
49 1 23.0064 0.892613 1.42944
50 1 22.8275 0.156006 1.00743
ITEM: TIMESTEP
3000
ITEM: NUMBER OF ATOMS
50
ITEM: BOX BOUNDS pp pp pp
-5.0000000000000000e+01 5.0000000000000000e+01
-5.0000000000000000e+01 5.0000000000000000e+01
-5.0000000000000000e+01 5.0000000000000000e+01
ITEM: ATOMS id type x y z
1 1 23.8678 2.24168 0.265622
2 1 24.016 1.05111 -0.0154941
3 1 23.1538 0.997747 -0.507107
4 1 22.3825 0.349853 -0.840066
5 1 21.4592 0.65947 -0.420917
6 1 21.84 1.04285 0.415699
7 1 21.4907 2.00791 0.561925
8 1 22.3385 2.08348 0.0807051
9 1 21.3528 1.85436 -0.453212
10 1 20.818 1.23109 0.323976
11 1 20.322 1.17796 -0.713475
12 1 20.2494 0.158459 -0.564825
13 1 19.8637 0.174673 -1.40827
14 1 20.8476 0.113925 -1.63604
15 1 21.1527 -0.434936 -0.794285
16 1 21.895 -0.437851 -1.31417
17 1 22.7931 -1.05062 -1.5545
18 1 23.3982 -1.80124 -1.99251
19 1 23.9481 -1.77826 -1.18125
20 1 24.3968 -1.51527 -1.92328
21 1 24.6524 -0.820632 -1.12274
22 1 25.627 -1.24803 -1.24266
23 1 25.7873 -0.412855 -1.69076
24 1 25.0494 -0.591394 -2.30073
25 1 25.0587 0.453912 -2.01397
26 1 24.1524 0.375365 -1.53339
27 1 24.8438 0.579303 -0.711774
28 1 24.3679 -0.177811 -0.395292
29 1 23.6914 -0.490206 -1.11859
30 1 23.4173 -1.14488 -0.499724
31 1 23.3476 -0.385058 0.274509
32 1 22.4657 -1.00814 0.681675
33 1 22.3643 -0.32595 1.25575
34 1 22.5764 0.190281 0.526577
35 1 21.8288 -0.370869 0.198201
36 1 21.2369 -1.08886 0.646075
37 1 21.624 -1.22875 1.56804
38 1 20.764 -0.944277 1.85073
39 1 20.7097 0.139791 2.29505
40 1 20.2798 -0.300491 3.34591
41 1 19.8164 -0.668242 2.56851
42 1 19.1447 -0.058647 2.17687
43 1 18.706 0.659687 1.92524
44 1 18.4984 0.0558734 1.28852
45 1 19.0073 -0.344599 0.471238
46 1 19.411 -0.658231 1.33879
47 1 19.8588 0.212119 1.13458
48 1 20.5359 0.934069 1.4415
49 1 21.2226 0.458287 1.0969
50 1 20.8682 0.0828192 0.216438
ITEM: TIMESTEP
4000
ITEM: NUMBER OF ATOMS
50
ITEM: BOX BOUNDS pp pp pp
-5.0000000000000000e+01 5.0000000000000000e+01
-5.0000000000000000e+01 5.0000000000000000e+01
-5.0000000000000000e+01 5.0000000000000000e+01
ITEM: ATOMS id type x y z
1 1 21.671 1.72808 0.588202
2 1 22.2251 1.10031 1.28881
3 1 21.4583 0.512159 0.82749
4 1 21.1134 1.11867 1.26791
5 1 20.3822 1.95605 1.50658
6 1 20.1688 1.63278 0.687602
7 1 20.8859 1.08777 0.0704444
8 1 21.8431 1.27115 -0.364806
9 1 22.6452 0.435024 -0.765684
10 1 23.5897 0.303283 -0.411418
11 1 23.1709 -0.421147 -1.04506
12 1 23.8978 -0.602253 -1.53789
13 1 23.779 -1.58309 -1.41241
14 1 23.2749 -1.40913 -0.576779
15 1 22.4606 -1.12098 -0.897629
16 1 21.5574 -0.666241 -0.324209
17 1 22.5108 -0.275151 -0.00586069
18 1 22.4046 -1.00158 0.358288
19 1 22.6333 -2.00821 0.214573
20 1 23.3254 -1.3821 0.57168
21 1 23.6938 -0.66478 0.264599
22 1 23.5821 -0.0818252 0.932605
23 1 24.1452 0.164727 1.6956
24 1 24.0072 0.911678 1.20716
25 1 23.1662 1.32357 1.70958
26 1 23.0413 0.729501 0.783429
27 1 22.4291 -0.145399 1.05092
28 1 22.9503 -0.85364 1.48854
29 1 23.8172 -0.836071 1.96618
30 1 23.1019 -0.561981 2.53634
31 1 22.9654 0.16127 1.91231
32 1 22.0276 0.171957 2.25976
33 1 20.9259 0.30202 2.38101
34 1 20.1698 -0.0437294 1.73353
35 1 19.5487 -0.837685 1.56477
36 1 20.2189 -0.664787 0.823748
37 1 20.097 0.192425 0.382723
38 1 20.2234 -0.31413 -0.291599
39 1 20.1655 0.325534 -1.13138
40 1 20.9133 -0.0531881 -1.55486
41 1 21.8271 -0.143917 -1.21679
42 1 21.5187 -0.958915 -1.38666
43 1 21.8171 -1.57539 -1.83547
44 1 21.3639 -0.954346 -2.61995
45 1 21.5833 -0.093528 -3.08226
46 1 22.1627 -0.197021 -2.35154
47 1 22.3332 0.814479 -2.38521
48 1 21.8031 1.42896 -2.64327
49 1 21.3821 0.877123 -2.09749
50 1 20.5215 0.901723 -2.13617
ITEM: TIMESTEP
5000
ITEM: NUMBER OF ATOMS
50
ITEM: BOX BOUNDS pp pp pp
-5.0000000000000000e+01 5.0000000000000000e+01
-5.0000000000000000e+01 5.0000000000000000e+01
-5.0000000000000000e+01 5.0000000000000000e+01
ITEM: ATOMS id type x y z
1 1 19.5349 2.14665 0.881747
2 1 20.2989 1.71151 -0.0189277
3 1 20.6011 1.70525 -0.989139
4 1 19.6492 1.18755 -1.05483
5 1 20.6289 1.05185 -1.80934
6 1 21.363 0.934625 -1.55873
7 1 21.9605 1.27582 -1.04287
8 1 21.8281 0.474763 -0.389961
9 1 21.3451 1.071 -0.22194
10 1 22.1163 1.07302 0.444821
11 1 22.8428 1.20853 -0.203857
12 1 22.9947 0.487905 0.300618
13 1 23.5108 -0.231753 -0.197089
14 1 22.8895 -0.942408 -0.151809
15 1 22.2455 -1.44453 -0.652945
16 1 21.2486 -1.32279 -0.467541
17 1 21.887 -1.74161 0.224169
18 1 22.4571 -2.4624 0.031083
19 1 22.846 -2.62824 -0.638257
20 1 23.5314 -2.33891 0.0879922
21 1 23.619 -1.41631 0.287208
22 1 23.6984 -1.01093 1.17404
23 1 23.0389 -0.438453 0.771273
24 1 22.1859 -0.726361 0.862292
25 1 21.845 -0.555383 0.0570085
26 1 21.1624 -0.837508 0.551081
27 1 21.2638 -0.00815523 0.940542
28 1 21.5436 -0.0135342 1.98953
29 1 20.4879 -0.243721 1.81378
30 1 19.7525 -0.458516 1.33493
31 1 19.5088 0.449571 1.75615
32 1 19.8504 0.731061 1.1333
33 1 18.9867 1.08859 1.04607
34 1 19.3965 0.604409 0.252902
35 1 20.1586 0.552529 -0.501975
36 1 20.9737 -0.0428764 -0.259412
37 1 21.1254 -0.0105136 -1.21412
38 1 20.9584 -0.824221 -1.92098
39 1 21.9176 -0.838579 -1.71824
40 1 22.2568 -0.417402 -0.856377
41 1 23.0676 -0.48876 -1.25802
42 1 22.8699 0.441016 -1.07017
43 1 23.782 0.535542 -1.27359
44 1 24.3239 0.301119 -0.67098
45 1 25.021 -0.534554 -0.269203
46 1 24.7672 -0.00708044 0.3826
47 1 24.0323 0.180763 1.15098
48 1 24.341 1.2034 1.0253
49 1 25.2752 0.957696 0.496663
50 1 25.5099 0.611338 1.41421
ITEM: TIMESTEP
6000
ITEM: NUMBER OF ATOMS
50
ITEM: BOX BOUNDS pp pp pp
-5.0000000000000000e+01 5.0000000000000000e+01
-5.0000000000000000e+01 5.0000000000000000e+01
-5.0000000000000000e+01 5.0000000000000000e+01
ITEM: ATOMS id type x y z
1 1 20.7567 1.64373 -0.0310069
2 1 21.2926 0.925482 -0.2198
3 1 21.6747 1.71285 -0.940864
4 1 21.679 1.53638 -1.99606
5 1 22.4348 1.09741 -1.28762
6 1 22.9204 1.91343 -2.02587
7 1 23.4657 1.17294 -1.46483
8 1 23.1664 1.42114 -0.354293
9 1 22.278 1.54809 0.0702803
10 1 22.7517 0.804702 0.270277
11 1 22.5756 0.217867 1.25393
12 1 21.8233 0.367666 0.479512
13 1 22.6712 -0.21483 0.181961
14 1 22.7282 -1.03511 0.675351
15 1 22.8205 -1.53858 -0.168215
16 1 23.6817 -2.05828 0.331585
17 1 23.5244 -1.59715 1.06556
18 1 23.8761 -1.54913 1.95092
19 1 23.5394 -1.71909 2.9226
20 1 22.7939 -1.43144 2.28585
21 1 21.8813 -1.85085 2.10163
22 1 22.3626 -1.72124 1.22985
23 1 21.2234 -1.35284 1.17381
24 1 21.7603 -0.662437 0.761501
25 1 21.7502 -0.588538 -0.24619
26 1 21.8322 0.215877 -0.764638
27 1 21.8908 0.332458 -1.7308
28 1 20.9119 0.457797 -1.55271
29 1 20.0693 0.618225 -1.00305
30 1 19.5531 -0.174507 -1.3292
31 1 20.2724 -0.53003 -1.16029
32 1 21.1229 -0.707686 -1.33943
33 1 21.9638 -0.783282 -2.30997
34 1 21.8312 -0.0250668 -2.97697
35 1 22.516 0.101202 -2.50753
36 1 23.1111 0.373546 -3.29467
37 1 23.7363 0.268972 -2.46277
38 1 23.9962 0.0520206 -1.48195
39 1 23.5148 -0.0256659 -0.537434
40 1 23.7148 -0.21428 0.436168
41 1 23.5306 -0.54168 1.31502
42 1 22.9124 -0.285472 2.19239
43 1 22.0773 -0.499953 1.78785
44 1 20.9996 -0.414504 1.8767
45 1 20.7647 -0.229945 0.78729
46 1 20.0009 0.701242 0.538704
47 1 20.0048 0.620577 1.52216
48 1 19.9414 0.418245 2.38116
49 1 20.5275 1.30588 2.14552
50 1 20.2719 1.92383 1.44856
ITEM: TIMESTEP
7000
ITEM: NUMBER OF ATOMS
50
ITEM: BOX BOUNDS pp pp pp
-5.0000000000000000e+01 5.0000000000000000e+01
-5.0000000000000000e+01 5.0000000000000000e+01
-5.0000000000000000e+01 5.0000000000000000e+01
ITEM: ATOMS id type x y z
1 1 21.4422 1.91023 -0.895676
2 1 21.3341 0.852534 -1.08265
3 1 22.2785 1.10439 -0.828006
4 1 22.1244 1.35349 0.00792146
5 1 22.4543 2.17535 -0.395955
6 1 22.3733 2.21348 0.576184
7 1 21.9836 1.64393 1.10145
8 1 21.6668 2.00856 2.11437
9 1 22.6159 2.40169 1.87836
10 1 22.7932 1.52886 2.20632
11 1 22.7604 0.630188 1.65912
12 1 22.8783 0.309171 0.682969
13 1 22.0702 -0.259041 0.571432
14 1 21.7444 0.297984 -0.255473
15 1 21.1614 0.408627 0.662687
16 1 20.6132 -0.0239839 1.37959
17 1 21.3366 -0.761239 1.50466
18 1 21.011 -1.71445 1.03069
19 1 21.4335 -1.12032 0.458368
20 1 20.8942 -1.29544 -0.282643
21 1 21.1898 -1.86236 -1.10226
22 1 21.8409 -1.65498 -0.336496
23 1 22.5666 -1.13427 0.0319035
24 1 22.1697 -0.758827 -0.493177
25 1 23.1585 -0.11712 -0.417632
26 1 23.5553 0.811619 -0.191317
27 1 24.5681 0.677387 -0.562926
28 1 23.8654 0.993003 -1.42583
29 1 23.0072 1.68139 -1.15972
30 1 22.8875 0.719028 -1.78449
31 1 23.6021 -0.0626066 -1.68847
32 1 22.8329 -0.630333 -1.40623
33 1 23.2016 -1.04567 -0.823152
34 1 23.3823 -1.8641 0.0559832
35 1 23.0931 -1.82987 0.862508
36 1 22.371 -1.46524 1.35659
37 1 23.006 -0.832632 1.28409
38 1 22.3637 -0.547349 1.88847
39 1 21.5361 0.199022 2.12318
40 1 21.4022 0.981349 1.60602
41 1 20.458 1.11094 0.98321
42 1 20.3826 0.653687 0.0235991
43 1 20.7495 -0.330053 -0.0173179
44 1 20.1825 -0.389399 -0.478186
45 1 20.2375 -1.22315 -1.06831
46 1 20.8052 -1.14751 -2.01931
47 1 20.9623 -0.390183 -1.60831
48 1 21.8412 -0.47361 -2.1744
49 1 22.0897 -1.42614 -1.48574
50 1 22.2223 -2.30603 -2.06598
ITEM: TIMESTEP
8000
ITEM: NUMBER OF ATOMS
50
ITEM: BOX BOUNDS pp pp pp
-5.0000000000000000e+01 5.0000000000000000e+01
-5.0000000000000000e+01 5.0000000000000000e+01
-5.0000000000000000e+01 5.0000000000000000e+01
ITEM: ATOMS id type x y z
1 1 21.0299 2.61159 0.897895
2 1 20.5881 2.99257 0.0888646
3 1 21.4406 3.64653 -0.0333967
4 1 21.9889 2.97438 -0.546796
5 1 21.0058 2.49397 -0.796721
6 1 20.0497 2.56458 -0.980183
7 1 19.8543 1.8676 -0.264378
8 1 20.5252 1.63252 -0.996268
9 1 20.8119 1.60987 0.0368034
10 1 20.0895 0.912866 0.273887
11 1 21.028 0.992269 0.82791
12 1 21.7439 0.703955 0.211989
13 1 22.5445 0.423492 -0.465502
14 1 22.1782 -0.198468 -0.961953
15 1 22.125 -1.05015 -1.00547
16 1 22.5564 -1.87042 -0.62214
17 1 23.0865 -2.16565 -1.49417
18 1 24.0102 -2.16044 -1.40322
19 1 24.5801 -2.96987 -0.735982
20 1 24.809 -2.04311 -0.740156
21 1 24.2168 -1.90544 0.0264499
22 1 23.5575 -1.11257 0.0169463
23 1 22.7228 -0.910473 0.00320513
24 1 22.9702 -0.238609 0.513946
25 1 23.2174 -0.872332 1.25078
26 1 23.5577 -1.54503 1.67331
27 1 22.5634 -1.64687 1.42438
28 1 22.8371 -1.60482 2.54149
29 1 22.9436 -1.60625 3.60423
30 1 22.035 -1.65024 3.27296
31 1 21.6862 -1.17122 2.42525
32 1 21.4232 -0.551316 1.80473
33 1 21.8667 -0.311488 1.05031
34 1 20.795 -0.54799 0.842578
35 1 21.4404 -1.23484 0.824262
36 1 21.7776 -0.534699 0.0824371
37 1 20.9587 -1.0144 -0.23374
38 1 19.9426 -0.639497 -0.292255
39 1 19.1514 -0.411596 -0.725819
40 1 19.6985 0.40438 -0.922518
41 1 20.6434 0.661021 -0.680715
42 1 21.6695 0.92204 -0.758717
43 1 21.3504 0.972931 -1.72036
44 1 22.2775 0.709367 -1.58272
45 1 23.2839 1.18865 -1.73996
46 1 23.9762 0.718437 -1.16908
47 1 23.2343 0.187653 -1.68775
48 1 23.3837 -0.350103 -0.74241
49 1 23.9187 0.112633 0.0182151
50 1 23.3549 1.01459 -0.410448
ITEM: TIMESTEP
9000
ITEM: NUMBER OF ATOMS
50
ITEM: BOX BOUNDS pp pp pp
-5.0000000000000000e+01 5.0000000000000000e+01
-5.0000000000000000e+01 5.0000000000000000e+01
-5.0000000000000000e+01 5.0000000000000000e+01
ITEM: ATOMS id type x y z
1 1 20.2374 1.79911 -0.305945
2 1 21.0639 1.29142 -0.197936
3 1 21.9329 1.71964 -0.474096
4 1 22.7675 1.21033 -0.993936
5 1 23.0168 0.596515 -1.72793
6 1 22.7992 1.35386 -2.07829
7 1 22.5494 0.932707 -3.01119
8 1 21.6807 1.23736 -2.64749
9 1 21.0048 1.32117 -1.68507
10 1 20.1182 1.32401 -1.1998
11 1 21.0072 0.454451 -1.03574
12 1 20.7293 -0.0846776 -0.107134
13 1 21.1402 0.337151 0.773002
14 1 21.6022 -0.267704 0.278081
15 1 22.3705 -0.697843 0.62628
16 1 22.8377 -0.312671 1.30579
17 1 23.5427 -0.768579 0.724725
18 1 23.6054 -0.758386 1.6981
19 1 23.3004 -0.0587081 2.15784
20 1 22.3954 -0.755359 2.17517
21 1 22.7748 -0.714987 2.95781
22 1 22.1395 -1.13402 3.44993
23 1 21.4427 -1.06185 2.54158
24 1 21.4039 -0.21122 2.49943
25 1 21.9848 0.0415672 1.77555
26 1 21.2476 -0.665115 1.48467
27 1 21.1387 -1.36222 0.521965
28 1 20.8509 -2.33415 0.615266
29 1 20.2029 -1.82194 0.021404
30 1 20.5066 -1.05808 -0.288659
31 1 21.2472 -0.924221 -0.718861
32 1 22.1314 -0.398461 -0.878956
33 1 22.7629 -0.555861 -1.60859
34 1 22.7651 -0.139898 -2.6325
35 1 22.0326 -0.0951955 -3.17242
36 1 21.917 -0.0923632 -2.07785
37 1 21.9714 -1.16565 -2.55759
38 1 22.5214 -1.58503 -1.63385
39 1 22.4666 -1.37757 -0.812311
40 1 23.1143 -1.50088 -0.115565
41 1 23.1778 -0.457157 -0.494559
42 1 22.9383 0.434946 -0.454879
43 1 22.9758 1.12915 0.235061
44 1 23.9435 0.762433 0.0640058
45 1 23.3091 0.222762 0.694302
46 1 22.2891 0.45438 0.703807
47 1 22.5026 1.08449 1.35869
48 1 21.7604 1.54182 0.782663
49 1 21.4557 1.08619 1.72294
50 1 21.8236 2.02434 1.74309
ITEM: TIMESTEP
10000
ITEM: NUMBER OF ATOMS
50
ITEM: BOX BOUNDS pp pp pp
-5.0000000000000000e+01 5.0000000000000000e+01
-5.0000000000000000e+01 5.0000000000000000e+01
-5.0000000000000000e+01 5.0000000000000000e+01
ITEM: ATOMS id type x y z
1 1 22.047 1.63547 -0.232597
2 1 22.6922 2.05503 -0.535113
3 1 22.9418 2.6039 0.0186393
4 1 22.1891 2.95281 -0.770243
5 1 23.0618 3.09907 -1.14793
6 1 22.7202 2.2706 -1.85441
7 1 22.3807 1.339 -1.39692
8 1 22.3163 1.23342 -2.34609
9 1 22.766 0.160783 -2.65086
10 1 23.0064 0.292966 -1.86113
11 1 22.8842 -0.623686 -1.23968
12 1 22.2107 -0.0246624 -0.769455
13 1 21.9092 0.0380375 -0.034951
14 1 21.7284 -0.595564 0.581777
15 1 20.9307 -0.231833 0.766268
16 1 20.6669 -1.21357 0.653018
17 1 20.3114 -1.98176 0.857331
18 1 19.5497 -1.68716 1.3189
19 1 18.9605 -1.43279 0.407786
20 1 19.7276 -1.39298 -0.209227
21 1 18.8067 -1.37459 -0.68386
22 1 19.2103 -0.374194 -0.794457
23 1 19.3618 -0.494345 0.00996594
24 1 20.0803 0.166154 -0.0756796
25 1 20.6156 -0.632987 -0.315616
26 1 20.7575 -1.55659 -0.749185
27 1 21.806 -1.89842 -0.888625
28 1 22.3633 -1.16553 -0.570686
29 1 21.5525 -0.917197 -0.69572
30 1 21.5058 -1.61116 0.101016
31 1 22.3474 -1.90692 0.590249
32 1 23.0413 -1.23075 0.445352
33 1 23.0066 -0.379361 0.0904411
34 1 23.7201 -0.466211 0.278891
35 1 24.348 -1.06137 0.251348
36 1 24.6444 -1.00731 1.14654
37 1 23.8417 -1.40176 1.33916
38 1 23.7895 -1.24989 2.32185
39 1 23.3186 -0.532572 1.96642
40 1 22.6083 -0.795691 1.57079
41 1 22.5591 0.165666 1.04814
42 1 23.2026 0.897137 1.16073
43 1 23.8608 0.760635 0.346054
44 1 23.5455 1.30861 -0.416446
45 1 23.0299 0.685268 -0.827395
46 1 22.5796 0.803876 0.087304
47 1 22.1 1.11691 1.12995
48 1 21.5386 1.10009 0.606596
49 1 21.6604 2.14962 0.907797
50 1 22.6968 2.4058 1.06397
ITEM: TIMESTEP
11000
ITEM: NUMBER OF ATOMS
50
ITEM: BOX BOUNDS pp pp pp
-5.0000000000000000e+01 5.0000000000000000e+01
-5.0000000000000000e+01 5.0000000000000000e+01
-5.0000000000000000e+01 5.0000000000000000e+01
ITEM: ATOMS id type x y z
1 1 23.5252 2.26699 0.0142987
2 1 23.3824 1.62114 -0.760393
3 1 24.2057 1.02858 -0.833058
4 1 24.5481 -0.0875902 -0.757444
5 1 23.9301 -0.569807 -1.47863
6 1 23.3393 0.0518876 -1.66162
7 1 22.857 0.713377 -1.10658
8 1 23.3655 0.360556 -0.427718
9 1 24.1716 0.589192 0.0787386
10 1 23.3539 1.03539 0.339321
11 1 22.6433 1.7716 0.25309
12 1 22.428 1.0285 -0.270292
13 1 22.3118 0.433187 0.49349
14 1 21.7192 0.0281139 -0.283725
15 1 22.2974 -0.217615 -1.20009
16 1 21.6387 -0.816953 -0.821315
17 1 21.1834 -1.59809 -1.19297
18 1 21.6691 -2.052 -1.90325
19 1 21.3343 -1.41004 -2.72713
20 1 21.8503 -0.63952 -2.21716
21 1 22.3829 -1.36059 -2.39538
22 1 23.0738 -1.29924 -1.65356
23 1 23.2742 -1.79347 -0.953353
24 1 23.332 -1.84151 0.0807231
25 1 24.166 -2.14212 -0.265579
26 1 24.4838 -1.15105 -0.638433
27 1 24.0496 -0.995655 0.304153
28 1 23.4529 -0.654755 -0.443308
29 1 23.1871 -0.389734 0.479974
30 1 22.3777 -0.709055 0.0531341
31 1 22.3246 -1.00446 0.974446
32 1 21.3132 -1.29619 0.87603
33 1 21.2689 -0.308295 0.665758
34 1 21.2475 -0.173122 1.66476
35 1 21.0679 -0.947076 1.94182
36 1 20.1524 -1.3937 1.57087
37 1 19.7286 -0.726009 1.11869
38 1 20.3631 -1.0093 0.37951
39 1 20.5596 -0.3461 -0.328534
40 1 19.5461 0.00801674 0.150321
41 1 20.3597 0.684753 -0.0262554
42 1 20.664 0.733847 0.948189
43 1 19.5647 0.652795 1.08984
44 1 19.584 1.56478 0.751573
45 1 20.4995 1.74253 1.0162
46 1 20.5515 1.81173 1.82964
47 1 19.9171 2.51247 1.7928
48 1 20.8405 2.84275 1.83347
49 1 21.7191 2.1899 2.03498
50 1 21.6934 1.26095 1.60996
ITEM: TIMESTEP
12000
ITEM: NUMBER OF ATOMS
50
ITEM: BOX BOUNDS pp pp pp
-5.0000000000000000e+01 5.0000000000000000e+01
-5.0000000000000000e+01 5.0000000000000000e+01
-5.0000000000000000e+01 5.0000000000000000e+01
ITEM: ATOMS id type x y z
1 1 25.0554 -0.365845 0.964534
2 1 25.0236 0.68917 0.961606
3 1 24.7843 0.315625 -0.0199941
4 1 24.1527 0.407674 0.464997
5 1 23.347 -0.0223088 0.30688
6 1 23.5454 0.16301 1.31924
7 1 23.0526 1.00848 0.992227
8 1 22.1245 1.06591 0.655399
9 1 21.1284 0.766934 0.984797
10 1 20.7189 -0.0548207 0.437271
11 1 21.5351 -0.257184 1.01279
12 1 22.5542 -0.113954 0.978828
13 1 22.2481 0.158513 0.0174906
14 1 22.9971 0.377395 -0.585916
15 1 22.753 -0.343852 -1.05032
16 1 22.2188 -1.22234 -1.29095
17 1 23.1281 -1.23462 -0.905546
18 1 23.9168 -1.45209 -0.385392
19 1 24.1075 -0.605734 -0.482707
20 1 24.8547 -0.855438 0.0506855
21 1 24.4243 -1.72946 0.568176
22 1 23.9458 -0.974537 0.799952
23 1 23.1147 -1.08367 0.235035
24 1 22.7718 -1.97284 0.698971
25 1 23.181 -2.5021 1.12132
26 1 23.6592 -1.85795 1.66586
27 1 22.8214 -1.44941 1.66093
28 1 22.1913 -1.11946 0.869848
29 1 22.1696 -1.1244 -0.147406
30 1 21.4312 -0.522673 -0.205055
31 1 21.2234 -1.09929 -1.08632
32 1 21.0001 -0.118461 -1.36237
33 1 21.7662 0.269559 -0.982828
34 1 20.9856 0.989966 -1.31454
35 1 20.7338 2.01699 -1.1305
36 1 21.515 2.0749 -1.7256
37 1 21.9592 1.19332 -1.55307
38 1 21.768 1.6044 -0.676341
39 1 21.2864 0.840953 -0.196689
40 1 21.172 1.7406 0.138007
41 1 20.3092 2.06933 0.828779
42 1 19.6297 1.38618 1.24945
43 1 19.1932 1.3314 0.19597
44 1 20.0176 1.29272 -0.214078
45 1 19.237 1.17438 -0.877714
46 1 19.8382 0.366242 -1.22791
47 1 19.0271 -0.142327 -0.865912
48 1 19.147 -1.05659 -0.5288
49 1 20.0968 -0.38137 -0.370861
50 1 19.6374 0.359068 0.00777994
ITEM: TIMESTEP
13000
ITEM: NUMBER OF ATOMS
50
ITEM: BOX BOUNDS pp pp pp
-5.0000000000000000e+01 5.0000000000000000e+01
-5.0000000000000000e+01 5.0000000000000000e+01
-5.0000000000000000e+01 5.0000000000000000e+01
ITEM: ATOMS id type x y z
1 1 23.416 -0.319276 1.76045
2 1 22.5152 -0.372765 2.1594
3 1 22.3474 0.247373 2.64935
4 1 22.6695 0.598849 1.72623
5 1 22.1175 1.60089 1.84742
6 1 21.6208 0.987717 1.33052
7 1 20.9089 0.521826 2.02866
8 1 20.3675 0.630233 1.19417
9 1 20.7278 1.05868 0.417564
10 1 20.9157 -0.000603603 0.507529
11 1 20.7294 -0.513616 -0.329102
12 1 21.7232 -0.347077 -0.0289925
13 1 21.8846 -0.0123308 0.85138
14 1 22.5844 -0.375338 1.09829
15 1 22.8019 -1.19659 0.965943
16 1 22.1268 -1.75419 0.85616
17 1 21.9981 -1.87378 1.89705
18 1 21.7746 -0.98337 1.55081
19 1 21.3675 -0.384649 1.58913
20 1 20.7497 -1.10181 1.9387
21 1 20.8032 -2.00452 1.68805
22 1 20.3998 -1.81421 0.750124
23 1 21.1613 -1.16009 0.732384
24 1 21.5904 -1.44522 -0.0525454
25 1 22.5593 -1.21599 -0.0223363
26 1 23.1595 -1.23443 -0.673514
27 1 23.8162 -1.40169 0.0667441
28 1 23.3585 -0.516872 0.279365
29 1 23.4191 0.0690259 -0.456872
30 1 23.6293 1.12311 -0.133265
31 1 24.0531 0.328254 0.245012
32 1 23.1912 0.716223 0.747936
33 1 22.5854 0.489322 0.254859
34 1 21.9159 1.13202 0.391051
35 1 22.5706 1.59829 -0.090279
36 1 22.1461 0.982549 -0.728075
37 1 21.4423 1.24337 -1.23794
38 1 21.2518 1.04952 -2.22967
39 1 21.5045 2.15581 -2.53427
40 1 22.344 1.78846 -2.76679
41 1 21.9561 1.66593 -3.68324
42 1 21.7506 0.684404 -3.52931
43 1 22.5098 0.627008 -2.81509
44 1 21.9505 -0.00504471 -2.6126
45 1 21.1802 0.124245 -1.78556
46 1 21.2734 0.314742 -0.689911
47 1 22.2686 -0.153809 -0.764268
48 1 22.6413 0.362267 -1.57546
49 1 22.5863 -0.553062 -1.6739
50 1 22.1351 -1.35979 -1.11128
ITEM: TIMESTEP
14000
ITEM: NUMBER OF ATOMS
50
ITEM: BOX BOUNDS pp pp pp
-5.0000000000000000e+01 5.0000000000000000e+01
-5.0000000000000000e+01 5.0000000000000000e+01
-5.0000000000000000e+01 5.0000000000000000e+01
ITEM: ATOMS id type x y z
1 1 19.7935 -1.15116 2.04787
2 1 20.2147 -0.267928 1.75899
3 1 19.6584 -0.132711 0.567074
4 1 19.0319 -0.272028 0.0654434
5 1 19.1942 0.0420669 -0.850678
6 1 19.8684 -0.175075 -1.5024
7 1 20.0805 -0.567515 -0.6022
8 1 20.8234 -0.246824 -1.11526
9 1 21.5005 -0.565016 -0.504292
10 1 21.8793 0.163305 -1.18302
11 1 21.3672 0.955456 -0.934685
12 1 20.895 0.512057 -0.28861
13 1 20.6419 0.40244 0.725589
14 1 20.6718 -0.407345 0.197057
15 1 20.4345 -0.978586 0.984492
16 1 19.9958 -1.25804 0.128968
17 1 20.7918 -1.50351 -0.443346
18 1 20.3261 -2.27143 0.0912905
19 1 20.8261 -2.96896 -0.244013
20 1 21.4989 -2.42261 0.0326689
21 1 22.2175 -1.6757 0.582974
22 1 21.3187 -1.43207 0.547285
23 1 21.8765 -0.638861 0.485954
24 1 21.9517 -1.14891 1.41634
25 1 21.2538 -0.439814 1.17375
26 1 21.7675 0.301521 1.02716
27 1 21.9165 0.469889 0.116405
28 1 22.1793 1.43644 -0.254252
29 1 22.4391 1.51365 0.629598
30 1 23.2633 1.43342 1.04047
31 1 23.3233 1.02472 0.000975044
32 1 22.9088 1.0976 -0.992603
33 1 22.1448 1.62494 -1.33136
34 1 22.4116 2.63821 -1.25886
35 1 23.328 1.99609 -0.916145
36 1 24.0313 2.11547 -0.218864
37 1 25.1329 1.93447 0.0964994
38 1 24.3271 1.65552 0.645108
39 1 25.1926 1.19969 0.775495
40 1 25.3486 0.663724 0.284645
41 1 24.5272 1.13992 -0.271261
42 1 24.311 0.117405 0.200787
43 1 24.1475 0.0387253 -0.858861
44 1 24.3708 -0.762216 -1.13855
45 1 23.6856 -0.820085 -0.218487
46 1 22.9315 0.0376661 -0.35001
47 1 22.8305 -0.0126444 0.712672
48 1 22.894 -0.816744 0.578744
49 1 22.4371 -0.961036 -0.319295
50 1 22.5376 -0.617567 -1.11725
ITEM: TIMESTEP
15000
ITEM: NUMBER OF ATOMS
50
ITEM: BOX BOUNDS pp pp pp
-5.0000000000000000e+01 5.0000000000000000e+01
-5.0000000000000000e+01 5.0000000000000000e+01
-5.0000000000000000e+01 5.0000000000000000e+01
ITEM: ATOMS id type x y z
1 1 19.5552 -2.25998 -1.86899
2 1 20.4009 -2.52734 -1.45921
3 1 21.1349 -1.9303 -1.96377
4 1 20.2573 -1.5277 -2.21538
5 1 20.9626 -0.795659 -1.93874
6 1 21.932 -0.523702 -1.56385
7 1 22.8054 -0.46815 -1.03758
8 1 22.439 0.537206 -0.973021
9 1 22.3754 0.00483533 -0.156575
10 1 21.388 -0.274444 -0.307378
11 1 21.219 0.590516 -0.82486
12 1 20.5909 -0.123864 -0.941816
13 1 19.78 0.267853 -1.06789
14 1 20.4367 0.634633 -1.71366
15 1 20.2014 -0.143559 -2.13625
16 1 19.6981 -0.764556 -1.28832
17 1 19.9038 -1.69469 -0.881521
18 1 20.788 -1.62157 -0.897874
19 1 20.3201 -0.950994 -0.172194
20 1 20.1533 -1.2499 0.709591
21 1 20.7497 -1.95971 0.124184
22 1 21.2374 -1.28473 0.52095
23 1 20.7154 -0.516669 0.939642
24 1 20.8463 0.156505 0.411413
25 1 20.5238 1.25882 0.564264
26 1 21.4026 1.32662 0.909865
27 1 21.7958 0.726432 0.388291
28 1 22.7108 0.459095 0.777374
29 1 22.776 1.44353 0.694234
30 1 22.9948 1.48005 -0.379118
31 1 23.1912 0.530438 -0.0986992
32 1 23.8337 0.179534 0.448357
33 1 23.7839 -0.1261 -0.389944
34 1 24.6968 0.246389 -0.543894
35 1 24.5718 1.14335 0.0110003
36 1 23.9612 1.56513 -0.60362
37 1 23.7729 1.39598 0.391539
38 1 24.3835 2.10537 0.523549
39 1 23.4257 2.13542 1.012
40 1 23.9116 1.89318 1.76122
41 1 24.9091 1.6704 1.421
42 1 24.3599 0.948394 1.09548
43 1 23.3847 0.82219 1.4982
44 1 22.8615 0.385881 2.25612
45 1 23.6802 -0.202857 2.21909
46 1 23.1145 -0.600208 1.54254
47 1 22.9861 -0.749406 0.388618
48 1 22.1314 -0.658656 0.675704
49 1 21.5831 -0.465886 1.49728
50 1 21.8627 -0.4871 2.64266
ITEM: TIMESTEP
16000
ITEM: NUMBER OF ATOMS
50
ITEM: BOX BOUNDS pp pp pp
-5.0000000000000000e+01 5.0000000000000000e+01
-5.0000000000000000e+01 5.0000000000000000e+01
-5.0000000000000000e+01 5.0000000000000000e+01
ITEM: ATOMS id type x y z
1 1 23.444 -2.43906 -0.715971
2 1 23.3909 -1.61066 -0.840912
3 1 23.6217 -1.27877 -1.76347
4 1 22.7027 -1.8635 -1.86302
5 1 22.4701 -1.096 -1.09351
6 1 22.0127 -0.669142 -0.348888
7 1 22.4736 -1.49936 0.131031
8 1 23.1947 -0.829825 0.191564
9 1 22.746 -0.100472 0.213174
10 1 23.173 0.548303 0.511794
11 1 22.2907 0.730312 -0.250153
12 1 21.9791 1.4902 -1.06429
13 1 21.3803 0.708245 -1.192
14 1 22.3083 0.231057 -1.2224
15 1 23.2383 0.125941 -0.724367
16 1 23.3422 -0.202476 -1.69646
17 1 22.6411 -0.576083 -2.58547
18 1 22.3475 -0.254235 -3.54515
19 1 21.9459 0.386882 -2.93351
20 1 21.0282 0.366004 -2.57109
21 1 20.5769 0.122899 -1.72862
22 1 20.9293 -0.586732 -2.34811
23 1 21.5036 -1.35941 -1.88083
24 1 21.8985 -0.524629 -1.78916
25 1 21.2051 -0.66387 -1.13466
26 1 21.0239 0.0523324 -0.347334
27 1 20.7731 1.16449 -0.368132
28 1 21.3001 0.682646 0.483287
29 1 21.4127 0.0851019 1.15633
30 1 21.3472 -0.312796 1.92383
31 1 22.3009 -0.332708 1.62754
32 1 23.1666 -0.619463 1.59882
33 1 22.8174 -1.45637 1.4842
34 1 22.4465 -1.11009 2.29425
35 1 22.5843 -0.975688 3.15333
36 1 22.6688 -0.205776 2.63433
37 1 22.8699 0.497678 2.23609
38 1 22.0948 0.52406 1.91016
39 1 21.6094 1.32414 2.31698
40 1 22.3823 1.74837 1.96551
41 1 22.5828 1.22995 1.26171
42 1 22.4106 1.78319 0.417211
43 1 21.672 1.5355 0.0361387
44 1 21.2062 2.45254 0.0822486
45 1 20.8263 1.7245 0.590488
46 1 21.4565 1.52134 1.22436
47 1 20.8508 0.824191 1.66632
48 1 20.3435 0.0145491 1.41105
49 1 20.7154 -0.666384 0.848689
50 1 21.7933 -0.640908 0.637057
ITEM: TIMESTEP
17000
ITEM: NUMBER OF ATOMS
50
ITEM: BOX BOUNDS pp pp pp
-5.0000000000000000e+01 5.0000000000000000e+01
-5.0000000000000000e+01 5.0000000000000000e+01
-5.0000000000000000e+01 5.0000000000000000e+01
ITEM: ATOMS id type x y z
1 1 26.0291 0.673592 -2.1204
2 1 25.3189 -0.122397 -1.86511
3 1 25.2389 0.134106 -2.85207
4 1 25.5101 -0.880181 -2.8714
5 1 24.9451 -1.24887 -2.09289
6 1 24.0411 -0.636876 -2.21848
7 1 23.667 -0.288188 -1.48436