ITEM: TIMESTEP
0
ITEM: NUMBER OF ATOMS
50
ITEM: BOX BOUNDS pp pp pp
-5.0000000000000000e+01 5.0000000000000000e+01
-5.0000000000000000e+01 5.0000000000000000e+01
-5.0000000000000000e+01 5.0000000000000000e+01
ITEM: ATOMS id type x y z
1 1 -2.34638 0 0
2 1 -1.3479 0 0
3 1 -0.350937 0 0
4 1 0.645879 0 0
5 1 1.64256 0 0
6 1 2.63911 0 0
7 1 3.63553 0 0
8 1 4.6318 0 0
9 1 5.62795 0 0
10 1 6.62396 0 0
11 1 7.61983 0 0
12 1 8.61557 0 0
13 1 9.61118 0 0
14 1 10.6066 0 0
15 1 11.602 0 0
16 1 12.5972 0 0
17 1 13.5923 0 0
18 1 14.5872 0 0
19 1 15.582 0 0
20 1 16.5767 0 0
21 1 17.5709 0 0
22 1 18.5663 0 0
23 1 19.5615 0 0
24 1 20.5571 0 0
25 1 21.5525 0 0
26 1 22.5475 0 0
27 1 23.5429 0 0
28 1 24.5385 0 0
29 1 25.5337 0 0
30 1 26.5291 0 0
31 1 27.5233 0 0
32 1 28.518 0 0
33 1 29.5128 0 0
34 1 30.5077 0 0
35 1 31.5028 0 0
36 1 32.498 0 0
37 1 33.4934 0 0
38 1 34.4888 0 0
39 1 35.4844 0 0
40 1 36.4802 0 0
41 1 37.476 0 0
42 1 38.472 0 0
43 1 39.4682 0 0
44 1 40.4645 0 0
45 1 41.4609 0 0
46 1 42.4574 0 0
47 1 43.4541 0 0
48 1 44.4509 0 0
49 1 45.4479 0 0
50 1 46.4464 0 0
ITEM: TIMESTEP
1000
ITEM: NUMBER OF ATOMS
50
ITEM: BOX BOUNDS pp pp pp
-5.0000000000000000e+01 5.0000000000000000e+01
-5.0000000000000000e+01 5.0000000000000000e+01
-5.0000000000000000e+01 5.0000000000000000e+01
ITEM: ATOMS id type x y z
1 1 7.97353 0.308821 0.773351
2 1 8.84196 0.344267 1.33252
3 1 9.14246 0.548512 0.280625
4 1 8.55449 1.22873 -0.166953
5 1 9.0715 2.03791 -0.469521
6 1 9.60518 1.49052 0.177145
7 1 10.3325 1.25696 -0.50318
8 1 10.3678 0.196815 -0.343148
9 1 10.6759 -0.033691 0.505135
10 1 11.5769 0.17234 0.583454
11 1 11.2898 0.741785 -0.153911
12 1 11.4157 -0.191899 -0.530749
13 1 12.27 -0.452479 -1.05196
14 1 13.1018 -0.959405 -1.3486
15 1 13.46 -0.351795 -0.540242
16 1 14.3616 -0.534955 -0.50184
17 1 15.2213 -0.261352 -0.553046
18 1 16.1651 -0.234018 -0.342636
19 1 17.1282 -0.190802 -0.405781
20 1 17.8646 -0.708993 -0.054584
21 1 18.544 -0.295258 -0.700297
22 1 19.1096 -0.647601 0.0811864
23 1 19.7842 -1.22992 -0.155062
24 1 19.9137 -0.852617 0.806152
25 1 20.5713 -1.60562 0.428937
26 1 21.4659 -1.24588 4.92399e-05
27 1 22.3802 -1.56343 -0.208023
28 1 23.3156 -1.34493 -0.5857
29 1 24.1626 -1.55302 -1.07698
30 1 25.0508 -1.05941 -1.27629
31 1 26.0705 -1.12676 -1.31753
32 1 27.0375 -0.889217 -1.28262
33 1 27.8648 -0.475799 -1.34711
34 1 28.7785 -0.138991 -1.15059
35 1 29.6373 -0.0212583 -0.697411
36 1 30.4173 0.636435 -0.658769
37 1 30.8212 0.286838 0.145193
38 1 31.6651 0.0326993 -0.121795
39 1 31.4559 0.905583 -0.44146
40 1 32.1287 1.02033 0.223404
41 1 32.6816 0.253014 -0.0517533
42 1 33.5989 0.455919 0.313937
43 1 34.6314 0.246272 0.485228
44 1 35.323 1.04077 0.665534
45 1 35.6475 1.68487 1.40859
46 1 36.4523 1.38703 0.964162
47 1 36.9082 0.730554 1.54309
48 1 36.0334 0.707542 1.72734
49 1 36.2741 0.0501905 2.29223
50 1 36.3546 0.204365 3.30028
ITEM: TIMESTEP
2000
ITEM: NUMBER OF ATOMS
50
ITEM: BOX BOUNDS pp pp pp
-5.0000000000000000e+01 5.0000000000000000e+01
-5.0000000000000000e+01 5.0000000000000000e+01
-5.0000000000000000e+01 5.0000000000000000e+01
ITEM: ATOMS id type x y z
1 1 18.7941 -0.0247464 0.506966
2 1 19.556 -0.12822 0.519287
3 1 20.3734 0.180738 0.909913
4 1 21.1766 0.736446 0.564413
5 1 20.7748 1.23906 -0.253768
6 1 19.9908 1.72291 -0.574322
7 1 19.1922 1.68985 -1.1682
8 1 19.4431 0.909829 -0.723351
9 1 19.0162 1.35703 -0.027295
10 1 19.7392 0.831965 0.242734
11 1 20.3474 0.410049 -0.392699
12 1 20.3293 0.796264 -1.31799
13 1 19.7471 -0.0933761 -1.32492
14 1 19.9453 -0.52568 -0.473143
15 1 18.8552 -0.689704 -0.49105
16 1 18.6056 -1.19318 0.445198
17 1 19.5788 -1.22529 0.19435
18 1 20.4286 -1.71578 0.00861757
19 1 20.5093 -0.696003 0.264509
20 1 21.1939 -0.953848 -0.302716
21 1 20.5567 -1.24708 -0.979665
22 1 19.7564 -1.78751 -1.39386
23 1 20.5051 -1.41147 -1.98786
24 1 21.2262 -0.554029 -1.58732
25 1 21.2309 0.0798613 -0.764787
26 1 21.9534 0.537902 -1.17837
27 1 22.3348 -0.116631 -1.89839
28 1 23.2574 -0.188488 -1.31259
29 1 23.1674 -0.135822 -0.355529
30 1 23.0436 -1.23929 -0.120574
31 1 23.7065 -1.04155 -0.896046
32 1 24.7097 -0.97299 -1.22199
33 1 25.4444 -0.432075 -1.12913
34 1 25.281 0.226137 -0.262544
35 1 25.5483 -0.000833011 0.622758
36 1 24.5974 -0.506909 0.118833
37 1 24.1242 -1.44325 0.0616347
38 1 25.1286 -1.45416 0.204447
39 1 24.6114 -1.27491 1.14756
40 1 24.8706 -0.472613 1.78385
41 1 24.2957 0.0449136 1.18226
42 1 23.6989 -0.261132 0.548247
43 1 23.3666 0.558874 1.0704
44 1 23.0771 1.44932 1.34597
45 1 23.7207 1.14267 2.04173
46 1 24.577 0.523499 2.26405
47 1 25.1633 0.892922 1.5958
48 1 24.6052 1.63364 1.62467
49 1 23.9384 2.07719 1.10489
50 1 23.4064 2.7455 1.76503
ITEM: TIMESTEP
3000
ITEM: NUMBER OF ATOMS
50
ITEM: BOX BOUNDS pp pp pp
-5.0000000000000000e+01 5.0000000000000000e+01
-5.0000000000000000e+01 5.0000000000000000e+01
-5.0000000000000000e+01 5.0000000000000000e+01
ITEM: ATOMS id type x y z
1 1 20.3404 -1.02688 0.248525
2 1 19.9981 0.0598303 0.459085
3 1 20.712 0.675261 0.0876134
4 1 21.625 0.630313 0.51536
5 1 21.7925 0.156281 -0.114862
6 1 22.2219 1.12142 -0.506379
7 1 23.2343 1.13396 -0.657473
8 1 23.6937 1.41119 -1.44709
9 1 22.8596 1.0017 -1.55373
10 1 21.953 1.52839 -1.57832
11 1 21.3785 0.60931 -1.24505
12 1 21.7581 0.703539 -2.12305
13 1 21.7527 -0.265567 -2.26081
14 1 22.2744 -0.954581 -1.84783
15 1 22.1307 -1.83414 -2.11637
16 1 22.3933 -2.73926 -1.63406
17 1 22.683 -2.27943 -0.787358
18 1 22.1756 -1.41199 -0.908741
19 1 22.8151 -1.27781 -0.301246
20 1 23.7245 -0.772611 -0.615665
21 1 23.0288 -0.543404 -1.27375
22 1 22.3953 0.153555 -1.04368
23 1 23.1004 0.203685 -0.345292
24 1 23.7652 0.248822 -1.14301
25 1 24.7285 0.309906 -0.540867
26 1 25.7337 0.0386368 -0.15851
27 1 25.0347 0.0843062 0.48756
28 1 24.197 0.656454 0.853489
29 1 23.4278 1.0519 0.815687
30 1 23.7266 1.05172 1.69326
31 1 23.4788 0.255879 1.77428
32 1 22.9175 -0.00446952 0.997656
33 1 22.0426 0.431564 1.44983
34 1 21.4636 -0.190851 2.05032
35 1 21.5947 -1.2359 1.91748
36 1 21.7495 -2.17666 1.8706
37 1 21.2139 -2.55535 1.33609
38 1 20.6033 -2.02811 0.974755
39 1 21.243 -1.4631 1.01074
40 1 21.298 -1.68263 0.0834467
41 1 21.4829 -0.76862 0.123729
42 1 21.1498 -0.343235 0.890548
43 1 20.423 0.145893 1.32069
44 1 20.6595 1.03098 1.71854
45 1 20.6044 1.73939 1.11576
46 1 20.2107 2.5677 0.832925
47 1 19.6996 1.9138 0.41497
48 1 20.7018 1.81552 -0.00525864
49 1 19.9465 1.82178 -0.755248
50 1 19.3626 1.00191 -0.0792984
ITEM: TIMESTEP
4000
ITEM: NUMBER OF ATOMS
50
ITEM: BOX BOUNDS pp pp pp
-5.0000000000000000e+01 5.0000000000000000e+01
-5.0000000000000000e+01 5.0000000000000000e+01
-5.0000000000000000e+01 5.0000000000000000e+01
ITEM: ATOMS id type x y z
1 1 22.5295 -0.00548116 -2.63313
2 1 23.0922 0.0491861 -1.71909
3 1 23.1299 0.177536 -0.773445
4 1 23.5195 0.252872 0.0357836
5 1 23.2359 1.18084 -0.434641
6 1 22.3109 0.794651 -0.347863
7 1 22.3463 1.30388 0.554719
8 1 21.4403 1.01647 0.864204
9 1 22.1114 1.0812 1.5883
10 1 22.8894 0.514588 0.909016
11 1 23.6216 0.805023 1.3574
12 1 22.9117 0.661109 2.02842
13 1 23.0494 -0.301383 1.74858
14 1 23.6692 -0.298971 1.10051
15 1 24.4059 0.277636 0.948996
16 1 24.64 -0.597039 1.49683
17 1 23.9549 -0.527902 2.10163
18 1 24.0146 -1.66904 2.02962
19 1 24.0893 -1.38605 1.14125
20 1 23.9273 -0.800921 0.346859
21 1 24.2845 -1.0114 -0.831789
22 1 23.5588 -0.852701 -0.59796
23 1 22.7111 -1.13169 -0.576256
24 1 22.7909 -0.591978 0.150331
25 1 22.9483 -1.16277 1.02053
26 1 22.1547 -1.4609 0.269341
27 1 21.2894 -1.45014 -0.359309
28 1 21.4218 -1.01614 0.664356
29 1 21.7457 -0.450207 1.48759
30 1 22.0794 -0.0329166 0.694726
31 1 21.7452 -0.329396 -0.119612
32 1 20.8536 -0.0548903 0.0648034
33 1 20.2614 0.65785 0.215198
34 1 20.0266 0.201329 -0.511359
35 1 18.9967 0.55993 -0.331576
36 1 18.3008 0.703351 0.376727
37 1 18.4873 -0.210079 0.799716
38 1 19.4541 -0.0933019 0.460901
39 1 19.811 -0.804562 0.0361644
40 1 19.9243 -0.859772 -1.28305
41 1 20.7781 -1.13027 -1.39067
42 1 20.9328 -0.428149 -0.833249
43 1 21.0634 0.528089 -0.66075
44 1 21.3516 1.30547 -1.346
45 1 21.1832 2.16792 -0.894673
46 1 21.4095 2.19487 -1.97561
47 1 21.9449 1.53785 -2.44264
48 1 22.3114 0.87906 -1.75233
49 1 21.5145 0.157496 -1.49798
50 1 22.2757 -0.350139 -1.17951
ITEM: TIMESTEP
5000
ITEM: NUMBER OF ATOMS
50
ITEM: BOX BOUNDS pp pp pp
-5.0000000000000000e+01 5.0000000000000000e+01
-5.0000000000000000e+01 5.0000000000000000e+01
-5.0000000000000000e+01 5.0000000000000000e+01
ITEM: ATOMS id type x y z
1 1 23.9422 1.25145 0.246645
2 1 23.5889 0.481443 -0.523212
3 1 22.6435 0.94627 -0.273479
4 1 21.8789 1.48615 -0.550078
5 1 21.6352 0.478181 -0.0314497
6 1 21.9578 1.25012 0.528386
7 1 21.1553 1.35743 1.23723
8 1 20.1849 1.09257 1.44988
9 1 20.9084 0.452656 1.59921
10 1 20.658 1.12021 2.37849
11 1 21.0007 0.357908 2.87216
12 1 20.3298 -0.185881 2.82385
13 1 21.2781 -0.341923 2.17974
14 1 20.9846 -0.734903 1.24034
15 1 21.8508 -0.132825 1.18374
16 1 22.045 -0.876341 1.97174
17 1 22.5751 0.0256497 2.45169
18 1 23.1678 -0.542714 2.99354
19 1 22.5661 -1.18086 2.8256
20 1 21.7703 -1.57416 2.91733
21 1 20.9428 -1.93774 2.35295
22 1 21.786 -2.28511 1.71339
23 1 22.6936 -1.71217 1.48556
24 1 22.81 -0.774566 0.940681
25 1 22.8411 0.168459 0.410091
26 1 22.2435 -0.467628 -0.0729147
27 1 21.4664 -1.03943 0.176804
28 1 20.6185 -0.34798 0.112511
29 1 19.9599 -0.292574 0.885322
30 1 19.4787 -1.22918 1.13774
31 1 20.2102 -1.45694 0.615928
32 1 20.5253 -1.34314 -0.232259
33 1 21.161 -1.64839 -0.868361
34 1 21.6639 -0.493204 -1.07662
35 1 22.3053 -0.107927 -1.65775
36 1 22.4276 -0.316287 -2.50268
37 1 22.0359 0.271842 -3.0692
38 1 22.9941 0.479097 -3.76772
39 1 22.4808 -0.437178 -3.84781
40 1 23.5966 -0.521849 -3.61617
41 1 23.3823 0.113024 -2.87013
42 1 23.9467 0.9377 -2.3506
43 1 23.4599 0.111553 -1.69657
44 1 22.8756 0.743398 -2.20134
45 1 22.2473 1.44637 -2.46794
46 1 22.2214 1.03042 -1.41352
47 1 22.4043 1.96497 -1.51956
48 1 23.314 1.43777 -0.962936
49 1 23.983 1.1347 -1.24225
50 1 24.303 1.84155 -1.916
ITEM: TIMESTEP
6000
ITEM: NUMBER OF ATOMS
50
ITEM: BOX BOUNDS pp pp pp
-5.0000000000000000e+01 5.0000000000000000e+01
-5.0000000000000000e+01 5.0000000000000000e+01
-5.0000000000000000e+01 5.0000000000000000e+01
ITEM: ATOMS id type x y z
1 1 23.0981 0.431567 0.85026
2 1 22.0755 0.556562 0.469043
3 1 22.4421 0.0687819 -0.29239
4 1 21.3938 -0.0705547 -0.386627
5 1 20.9749 0.215626 0.55251
6 1 21.3653 1.07567 1.10014
7 1 21.2412 1.52798 0.268736
8 1 20.2667 1.60284 0.562028
9 1 19.3502 1.35996 0.303046
10 1 18.9508 2.0679 -0.448599
11 1 19.2173 2.46909 -1.44461
12 1 20.0268 1.83023 -0.92802
13 1 20.5541 1.02829 -0.717918
14 1 20.3259 0.0762411 -0.584386
15 1 20.3631 -0.524121 0.152689
16 1 19.627 0.190471 0.307095
17 1 18.5975 0.179022 0.641026
18 1 18.9919 -0.473359 0.892145
19 1 19.3932 -0.725542 1.87402
20 1 20.0275 -1.41186 1.24816
21 1 20.8225 -1.98859 0.672722
22 1 21.6966 -2.03916 0.935297
23 1 21.8962 -2.09652 -0.00724021
24 1 22.6101 -1.81171 0.539849
25 1 22.1586 -0.729924 0.915246
26 1 21.6627 -0.964932 0.0851198
27 1 21.285 -1.33334 -0.859943
28 1 20.6112 -0.952446 -1.53001
29 1 21.294 -1.60108 -1.92588
30 1 22.1395 -1.97694 -2.37438
31 1 22.9526 -2.23154 -1.67738
32 1 22.3937 -1.09863 -1.55371
33 1 22.4913 -1.22787 -0.570265
34 1 22.9199 -0.789841 0.153359
35 1 23.1089 -0.785527 1.12349
36 1 23.9617 -1.04112 0.523628
37 1 24.1774 -0.80822 1.39331
38 1 24.1934 0.0769635 0.833731
39 1 25.216 -0.0439418 0.51753
40 1 24.4078 -0.11243 -0.218931
41 1 25.0335 0.391656 -0.956316
42 1 25.353 1.25141 -0.430723
43 1 25.1227 1.16264 0.654151
44 1 24.5511 1.65438 0.0677442
45 1 23.8363 1.23155 0.65185
46 1 23.7007 0.60451 0.0155331
47 1 23.5399 0.196173 -1.02299
48 1 23.5845 1.34394 -0.835492
49 1 23.6636 2.00264 -0.172196
50 1 23.8329 2.24312 0.63455
ITEM: TIMESTEP
7000
ITEM: NUMBER OF ATOMS
50
ITEM: BOX BOUNDS pp pp pp
-5.0000000000000000e+01 5.0000000000000000e+01
-5.0000000000000000e+01 5.0000000000000000e+01
-5.0000000000000000e+01 5.0000000000000000e+01
ITEM: ATOMS id type x y z
1 1 21.2109 2.15714 -0.384875
2 1 22.087 1.72589 -0.652376
3 1 22.1026 2.12637 0.204483
4 1 22.7459 1.52713 0.745756
5 1 22.6957 1.00854 -0.274051
6 1 21.8671 0.398902 -0.922981
7 1 21.0354 0.967779 -0.643876
8 1 21.3751 1.20106 -1.60024
9 1 22.0069 0.779695 -1.95802
10 1 22.9277 0.423682 -2.4817
11 1 22.9568 -0.0374673 -1.66008
12 1 22.2367 -0.480426 -1.918
13 1 22.2862 -1.10233 -2.69096
14 1 23.2647 -0.662442 -2.41542
15 1 23.3883 -1.17285 -1.6021
16 1 22.5207 -1.55163 -1.50976
17 1 21.7877 -1.12547 -1.331
18 1 21.3498 -1.94206 -1.44626
19 1 20.5672 -1.99881 -1.75931
20 1 20.6099 -2.50658 -0.811758
21 1 19.8906 -1.82708 -0.34345
22 1 20.096 -1.16126 -1.00702
23 1 20.7613 -0.509978 -1.2826
24 1 20.9632 -0.59572 -0.384059
25 1 20.5363 -1.38614 0.433879
26 1 21.2532 -1.19493 1.23147
27 1 21.6948 -1.37321 0.417542
28 1 21.5102 -1.65352 -0.311559
29 1 22.582 -1.6136 -0.0543953
30 1 22.4482 -0.679505 -0.720253
31 1 22.0686 0.0343675 0.00887922
32 1 22.5404 0.386248 0.825221
33 1 23.1739 0.273144 0.174156
34 1 23.1311 -0.729492 0.273226
35 1 22.3485 -0.753383 0.806281
36 1 21.4797 -0.0988305 0.91787
37 1 20.7885 0.224049 0.22832
38 1 20.8897 0.751215 1.13387
39 1 21.2923 1.18407 0.452265
40 1 21.6821 1.89541 1.24915
41 1 21.8148 1.04409 1.4281
42 1 21.6961 0.24191 1.80393
43 1 22.5467 -0.191691 1.96552
44 1 23.1761 0.48518 2.17416
45 1 22.8985 1.1982 3.06089
46 1 22.3136 1.33077 2.39062
47 1 23.026 1.49562 1.89863
48 1 23.8483 1.43517 2.44526
49 1 24.8288 1.40541 2.20952
50 1 24.1981 0.647348 1.68711
ITEM: TIMESTEP
8000
ITEM: NUMBER OF ATOMS
50
ITEM: BOX BOUNDS pp pp pp
-5.0000000000000000e+01 5.0000000000000000e+01
-5.0000000000000000e+01 5.0000000000000000e+01
-5.0000000000000000e+01 5.0000000000000000e+01
ITEM: ATOMS id type x y z
1 1 25.5845 2.75111 -0.642311
2 1 24.7273 2.12626 -0.778311
3 1 23.9438 1.71537 -1.0613
4 1 23.6163 0.761783 -0.799831
5 1 23.3179 1.63566 -0.308676
6 1 22.5483 1.55021 -0.970158
7 1 22.476 0.877114 -0.397945
8 1 22.6589 -0.153657 -0.208195
9 1 22.6411 -0.391807 0.687369
10 1 23.4249 -0.895373 1.1018
11 1 22.9025 -1.56022 1.14087
12 1 22.9782 -2.20001 0.23181
13 1 22.6887 -2.39565 -0.704471
14 1 23.3765 -2.91375 -0.323711
15 1 24.0362 -2.20349 -0.204658
16 1 24.5982 -2.64597 -0.542518
17 1 24.3715 -2.32308 -1.47935
18 1 23.4619 -1.94404 -1.72125
19 1 24.1484 -1.19312 -1.89453
20 1 24.6361 -1.33285 -0.990575
21 1 24.0752 -0.81052 -0.238669
22 1 23.4842 -0.367975 -0.949315
23 1 22.781 -0.16316 -1.29258
24 1 21.8673 0.089402 -0.874062
25 1 21.5875 0.896044 -1.11735
26 1 20.8362 0.207319 -0.844491
27 1 20.8781 -0.748889 -1.22534
28 1 21.8358 -0.914899 -1.08925
29 1 21.6931 -0.72858 -0.0210632
30 1 22.4637 -1.25788 -0.311799
31 1 21.72 -1.72971 0.216847
32 1 20.8849 -1.5569 -0.102973
33 1 20.5365 -0.659924 0.115349
34 1 21.2211 -0.608808 0.916657
35 1 21.8744 0.133279 1.06583
36 1 21.3975 0.239523 0.20362
37 1 20.841 1.09246 -0.108432
38 1 21.4729 1.84801 -0.419078
39 1 21.7352 1.31867 0.344625
40 1 21.0416 0.978731 0.913634
41 1 20.54 1.34702 1.52064
42 1 20.9033 1.98485 0.922552
43 1 20.8201 2.59891 0.226845
44 1 19.9253 2.17797 0.972492
45 1 19.6692 1.07143 1.16788
46 1 19.9611 0.591747 2.09455
47 1 19.2578 0.885102 2.53621
48 1 18.2734 0.727016 2.43746
49 1 18.2734 1.44228 1.68807
50 1 18.5118 0.652978 1.1171
ITEM: TIMESTEP
9000
ITEM: NUMBER OF ATOMS
50
ITEM: BOX BOUNDS pp pp pp
-5.0000000000000000e+01 5.0000000000000000e+01
-5.0000000000000000e+01 5.0000000000000000e+01
-5.0000000000000000e+01 5.0000000000000000e+01
ITEM: ATOMS id type x y z
1 1 22.8091 0.864941 1.06584
2 1 22.7155 1.1947 0.098669
3 1 21.6891 1.20072 0.391622
4 1 21.8124 1.10038 1.49505
5 1 20.9505 0.719311 1.21038
6 1 21.0413 -0.0598324 1.17211
7 1 21.9597 -0.0798307 1.45593
8 1 21.5269 -0.985946 1.53157
9 1 20.9262 -1.46288 1.00426
10 1 20.4695 -2.09017 0.276881
11 1 21.2193 -1.92909 -0.302302
12 1 22.2202 -2.22481 0.017704
13 1 22.2603 -1.13763 0.331267
14 1 22.5991 -0.915915 1.19703
15 1 22.9417 -0.0401833 1.64465
16 1 22.3694 -0.388297 2.50784
17 1 23.0326 -0.886196 2.12678
18 1 23.6191 -0.232063 2.63586
19 1 23.9805 0.71514 2.07764
20 1 24.3928 1.15488 1.21729
21 1 23.82 0.241567 1.07436
22 1 23.5037 -0.641801 0.622965
23 1 22.8402 0.0421266 0.450982
24 1 21.9202 0.0714566 0.271388
25 1 22.3537 -0.324667 -0.61304
26 1 23.0244 0.525605 -0.573794
27 1 23.7832 0.315174 -0.15589
28 1 23.3875 -0.521092 -0.659426
29 1 24.2278 -0.566456 -1.08757
30 1 23.4774 -0.849664 -1.80773
31 1 23.2384 0.0719133 -1.81722
32 1 22.5003 0.509069 -1.67346
33 1 22.0592 -0.224276 -2.201
34 1 22.3336 -0.888593 -1.90174
35 1 21.9504 -1.29489 -1.05079
36 1 21.3787 -0.612948 -0.804039
37 1 21.2735 -0.731563 0.115789
38 1 20.5306 -0.326521 0.33568
39 1 19.9359 0.538883 0.851063
40 1 19.6875 0.536926 -0.160573
41 1 20.51 1.2067 0.0175788
42 1 21.053 0.551559 -0.149018
43 1 21.688 1.24851 -0.585939
44 1 21.973 1.66294 -1.35314
45 1 21.6938 2.05569 -2.25382
46 1 21.1523 1.20578 -2.11784
47 1 20.8222 1.07047 -1.16413
48 1 21.3543 0.315396 -1.34299
49 1 20.3124 -0.00908276 -1.25675
50 1 20.1798 0.304559 -2.16598
ITEM: TIMESTEP
10000
ITEM: NUMBER OF ATOMS
50
ITEM: BOX BOUNDS pp pp pp
-5.0000000000000000e+01 5.0000000000000000e+01
-5.0000000000000000e+01 5.0000000000000000e+01
-5.0000000000000000e+01 5.0000000000000000e+01
ITEM: ATOMS id type x y z
1 1 19.1838 0.265286 -0.0169511
2 1 19.664 1.08568 -0.294381
3 1 20.377 0.447464 -0.127333
4 1 20.4003 0.413628 -1.08601
5 1 20.9386 1.34503 -0.816611
6 1 21.1758 1.66773 -1.57233
7 1 21.5627 0.578959 -1.60067
8 1 21.3906 -0.0262773 -0.849167
9 1 21.5658 -0.89547 -1.34782
10 1 21.0104 -1.06924 -0.555871
11 1 20.7951 -2.10685 -1.0389
12 1 21.745 -1.89843 -1.15736
13 1 21.7383 -2.85104 -1.3611
14 1 21.8784 -2.94341 -0.513384
15 1 21.8943 -2.18201 0.229308
16 1 21.9188 -1.32574 0.864053
17 1 21.5306 -0.300691 1.09872
18 1 21.617 0.133895 1.96577
19 1 20.8346 0.668107 2.27738
20 1 20.3893 1.2825 2.02695
21 1 21.233 1.53981 1.81332
22 1 20.9302 0.582969 1.28032
23 1 21.1535 1.28177 0.66581
24 1 22.0497 1.3647 1.19894
25 1 22.74 1.44887 1.99295
26 1 22.9598 0.608709 2.27132
27 1 22.3091 -0.0284368 2.78162
28 1 22.8954 -0.76227 2.51683
29 1 22.1537 -1.45881 1.88678
30 1 22.8196 -2.0662 1.35625
31 1 22.8884 -0.99742 1.23714
32 1 23.8277 -1.0275 1.43359
33 1 23.9594 -1.09998 0.4071
34 1 23.1472 -0.937729 -0.22605
35 1 22.213 -1.23359 -0.199294
36 1 22.4877 -0.382264 0.39075
37 1 21.8439 0.618175 0.128574
38 1 22.4127 0.343914 -0.454261
39 1 22.4228 -0.27636 -1.12729
40 1 22.7816 0.320186 -1.70951
41 1 23.0318 1.03351 -1.19214
42 1 22.2074 1.29669 -1.23718
43 1 21.8886 1.50251 -0.422567
44 1 22.9291 1.20557 -0.242969
45 1 23.0205 1.98434 -0.546447
46 1 23.1218 1.93967 -1.72533
47 1 23.8805 1.08674 -1.81257
48 1 24.0636 0.108023 -1.74794
49 1 23.4832 0.339591 -2.45928
50 1 24.0348 -0.62431 -2.38277
ITEM: TIMESTEP
11000
ITEM: NUMBER OF ATOMS
50
ITEM: BOX BOUNDS pp pp pp
-5.0000000000000000e+01 5.0000000000000000e+01
-5.0000000000000000e+01 5.0000000000000000e+01
-5.0000000000000000e+01 5.0000000000000000e+01
ITEM: ATOMS id type x y z
1 1 23.8562 -1.71938 -1.03665
2 1 23.502 -1.27378 -0.119577
3 1 22.9667 -0.560982 -0.756063
4 1 23.2825 0.37943 -1.43315
5 1 23.3928 1.27325 -1.01719
6 1 22.8705 1.05861 -0.351943
7 1 23.4982 0.321921 -0.388509
8 1 22.7742 0.0147754 0.291673
9 1 22.0987 -0.617898 0.89109
10 1 21.4395 -0.374762 0.195788
11 1 21.9161 -0.745654 -0.587196
12 1 22.3707 -1.63263 -0.870235
13 1 22.5186 -1.68128 0.0309579
14 1 21.7802 -1.57761 0.586549
15 1 21.1338 -1.98137 -0.0756775
16 1 20.907 -1.93471 -0.990391
17 1 20.7828 -1.04682 -0.511406
18 1 21.4817 -0.737103 -1.51131
19 1 21.3556 0.169595 -0.907286
20 1 22.0651 0.177491 -1.62848
21 1 22.2533 0.27923 -0.593939
22 1 22.0059 1.08704 -1.03676
23 1 21.6684 1.23359 -0.115617
24 1 20.6924 1.2656 -0.679099
25 1 20.2356 0.428102 -0.415523
26 1 19.2359 0.121167 -0.366453
27 1 19.7887 -0.51609 -1.04547
28 1 19.7212 -0.884905 -0.269787
29 1 20.3708 -0.391205 0.10507
30 1 19.538 -0.349369 0.788547
31 1 20.2733 -0.968445 1.2195
32 1 21.395 -1.45234 1.4752
33 1 21.0038 -0.472818 1.84938
34 1 21.7433 -0.168058 2.06229
35 1 21.4365 0.534808 2.54899
36 1 21.3451 0.887368 1.73552
37 1 20.7621 0.241068 1.11548
38 1 21.3253 0.555194 0.658955
39 1 22.1653 0.587044 1.1125
40 1 22.4667 1.40766 0.600749
41 1 21.7977 2.13862 0.22548
42 1 22.311 2.01483 -0.513963
43 1 23.296 2.26236 -0.844922
44 1 23.3697 1.90386 0.0826202
45 1 24.0398 1.26289 -0.171539
46 1 23.6096 0.722192 0.52208
47 1 24.4239 0.28683 0.201078
48 1 25.3274 -0.14388 0.533766
49 1 24.74 -0.806537 0.102032
50 1 24.1654 -0.576909 -0.697152
ITEM: TIMESTEP
12000
ITEM: NUMBER OF ATOMS
50
ITEM: BOX BOUNDS pp pp pp
-5.0000000000000000e+01 5.0000000000000000e+01
-5.0000000000000000e+01 5.0000000000000000e+01
-5.0000000000000000e+01 5.0000000000000000e+01
ITEM: ATOMS id type x y z
1 1 25.1942 -1.829 2.83161
2 1 25.0283 -0.903533 2.58054
3 1 24.2632 -0.849761 2.10721
4 1 23.5436 -0.449528 1.59067
5 1 22.6364 -0.623005 1.32644
6 1 22.1019 0.304717 1.08196
7 1 22.6428 0.577141 1.80152
8 1 21.612 0.445418 2.12046
9 1 20.8015 -0.0671483 2.19182
10 1 21.4686 -0.612703 1.30653
11 1 21.2792 -0.925686 0.362739
12 1 20.4162 -0.827661 0.373889
13 1 20.8687 -0.641909 -0.596816
14 1 20.7316 -1.39794 -0.793019
15 1 21.7817 -1.62448 -0.758163
16 1 22.4202 -1.41778 -1.47988
17 1 23.3142 -1.4639 -1.38801
18 1 23.3196 -1.05708 -0.491202
19 1 22.8633 -1.05902 0.458859
20 1 22.6684 -0.0481432 -0.0830788
21 1 21.8026 -0.224198 -0.45345
22 1 21.676 0.187246 -1.37439
23 1 21.6779 1.02821 -0.95657
24 1 20.9822 1.27892 -0.29584
25 1 20.7006 2.0565 -0.793203
26 1 21.6159 2.47004 -0.990043
27 1 21.5897 1.86175 -1.82586
28 1 22.0099 1.30864 -2.41554
29 1 22.0393 0.237257 -2.3478
30 1 22.3603 -0.532929 -2.19156
31 1 21.7497 -1.1182 -2.37237
32 1 21.1506 -0.795755 -1.63162
33 1 20.2256 -1.13182 -1.93925
34 1 20.3312 0.0170677 -1.93084
35 1 20.8347 -0.297338 -2.66701
36 1 21.1216 0.734902 -2.06006
37 1 20.228 1.02544 -1.80972
38 1 20.3922 0.648863 -0.939828
39 1 19.9205 -0.146197 -0.786632
40 1 20.2065 0.312599 -0.00106021
41 1 21.059 0.106363 0.497773
42 1 21.0539 1.11641 0.749411
43 1 21.9022 1.62466 0.282672
44 1 22.6612 0.960747 0.337094
45 1 23.3856 0.278423 0.880053
46 1 23.6212 0.886909 1.50876
47 1 23.6014 0.331683 2.44248
48 1 23.9984 -0.023924 3.08192
49 1 25.0492 0.13354 3.18603
50 1 24.5972 0.135204 2.27239
ITEM: TIMESTEP
13000
ITEM: NUMBER OF ATOMS
50
ITEM: BOX BOUNDS pp pp pp
-5.0000000000000000e+01 5.0000000000000000e+01
-5.0000000000000000e+01 5.0000000000000000e+01
-5.0000000000000000e+01 5.0000000000000000e+01
ITEM: ATOMS id type x y z
1 1 18.8225 -2.89308 1.9993
2 1 19.3776 -2.64373 1.24711
3 1 19.5863 -1.81113 1.1518
4 1 20.6723 -1.51025 1.07685
5 1 20.6237 -0.82214 0.374873
6 1 20.0364 -0.430841 -0.0962539
7 1 21.1005 -0.0452079 -0.2261
8 1 21.7259 -0.348272 -1.05365
9 1 22.0578 -1.21628 -1.00663
10 1 21.3869 -1.16263 -0.393787
11 1 22.0967 -1.63595 0.280344
12 1 22.5139 -2.27136 0.983234
13 1 23.2459 -1.72122 0.394339
14 1 23.3326 -1.33813 -0.564326
15 1 23.547 -0.68872 0.305159
16 1 22.8312 -0.83862 1.0456
17 1 21.9639 -1.18076 1.39723
18 1 21.7519 -0.400624 0.888993
19 1 22.4226 -0.443343 0.132574
20 1 22.7112 0.396883 0.884122
21 1 23.809 0.290091 0.739479
22 1 23.8387 0.138956 -0.266296
23 1 22.9247 0.402185 -0.184709
24 1 22.7202 0.142432 -1.08129
25 1 22.9602 1.19437 -1.05205
26 1 23.5772 1.32748 -0.539734
27 1 24.375 0.990631 -0.820491
28 1 23.759 1.03126 -1.60555
29 1 24.6864 0.878446 -2.09497
30 1 24.2892 -0.025106 -2.08704
31 1 23.8657 -0.106236 -1.34209
32 1 23.1789 -0.627428 -1.74462
33 1 22.8769 -0.409024 -2.65808
34 1 22.2564 -0.214281 -2.0321
35 1 23.0138 0.522759 -2.13477
36 1 22.2558 1.22474 -2.17205
37 1 21.8226 2.00092 -1.81794
38 1 22.0035 1.82043 -0.893731
39 1 21.845 0.710121 -0.942899
40 1 21.8761 0.652349 0.0428469
41 1 21.0809 1.10299 0.0335053
42 1 20.3784 1.52042 0.733394
43 1 21.2369 1.19228 1.35078
44 1 21.1643 0.504032 0.889546
45 1 20.7117 -0.153782 1.40114
46 1 21.2031 0.305686 2.26667
47 1 20.3858 0.869415 2.21621
48 1 21.2738 1.4958 2.38259
49 1 20.5358 1.88378 2.61411
50 1 20.7881 2.33969 1.97937
ITEM: TIMESTEP
14000
ITEM: NUMBER OF ATOMS
50
ITEM: BOX BOUNDS pp pp pp
-5.0000000000000000e+01 5.0000000000000000e+01
-5.0000000000000000e+01 5.0000000000000000e+01
-5.0000000000000000e+01 5.0000000000000000e+01
ITEM: ATOMS id type x y z
1 1 19.81 0.106618 -0.902389
2 1 19.8543 0.535235 -1.93794
3 1 20.5525 -0.157658 -2.4373
4 1 21.049 -0.366373 -1.43072
5 1 21.8271 0.304239 -1.45909
6 1 22.1929 -0.479485 -1.7094
7 1 22.9175 -0.862804 -1.56724
8 1 23.2037 -1.58521 -2.0507
9 1 24.2075 -1.5249 -1.63832
10 1 23.4856 -1.33102 -0.678523
11 1 24.2494 -1.83203 -0.295936
12 1 23.7307 -2.05099 0.678657
13 1 23.1983 -1.3802 0.653306
14 1 22.9213 -0.627706 0.032607
15 1 22.2439 -0.127881 -0.630368
16 1 21.4704 -0.301711 -0.235188
17 1 21.0987 -0.162639 0.791552
18 1 21.0397 0.569464 1.55501
19 1 21.9811 1.07624 1.27064
20 1 22.072 0.0644544 1.3638
21 1 22.3128 -0.112342 2.12532
22 1 23.1269 -0.675444 2.21371
23 1 22.9196 -0.603584 1.36909
24 1 23.3573 0.372272 1.51781
25 1 23.8841 1.16196 1.98916
26 1 23.3867 0.38512 2.50267
27 1 24.1677 -0.0666515 1.99625
28 1 24.1562 -0.65356 1.42384
29 1 24.656 -1.13502 2.13481
30 1 24.853 -1.79194 1.31856
31 1 24.5152 -1.08725 0.541431
32 1 24.1341 -0.441159 -0.0384021
33 1 24.0483 0.29935 0.672331
34 1 23.2009 0.491066 0.0278282
35 1 22.4861 0.8955 -0.654302
36 1 21.9184 0.58728 0.194697
37 1 21.3249 1.19934 0.32818
38 1 20.6515 1.81102 -0.109468
39 1 20.8604 2.926 -0.119302
40 1 21.5174 2.29112 -0.268588
41 1 21.5036 1.43295 -0.722657
42 1 20.9913 2.03463 -1.30543
43 1 20.1578 1.44725 -1.6806
44 1 20.0181 1.14284 -0.665254
45 1 20.6762 0.534472 -0.191284
46 1 19.7493 0.216787 0.131415
47 1 18.9055 -0.211988 -0.449662
48 1 18.0068 -0.664972 -0.502916
49 1 18.4907 -0.865789 -1.32571
50 1 19.4178 -0.784894 -1.82599
ITEM: TIMESTEP
15000
ITEM: NUMBER OF ATOMS
50
ITEM: BOX BOUNDS pp pp pp
-5.0000000000000000e+01 5.0000000000000000e+01
-5.0000000000000000e+01 5.0000000000000000e+01
-5.0000000000000000e+01 5.0000000000000000e+01
ITEM: ATOMS id type x y z
1 1 22.9672 -0.822898 -1.88074
2 1 23.9577 -0.651817 -1.77627
3 1 23.4818 0.125423 -1.34067
4 1 23.6418 -0.0506156 -0.552227
5 1 23.6708 -0.563568 0.37249
6 1 22.7897 -0.700414 0.269547
7 1 22.8881 0.415933 0.120578
8 1 23.0715 0.067009 1.04239
9 1 23.6812 -0.535142 1.50752
10 1 23.1726 -1.25142 1.04043
11 1 22.6958 -1.61745 1.97128
12 1 21.9403 -1.33951 1.48769
13 1 22.1134 -0.417777 1.77603
14 1 21.4977 -0.271076 0.870941
15 1 21.7975 0.00960757 0.0778086
16 1 22.1976 -0.48946 -0.740776
17 1 21.4842 0.228025 -0.947666
18 1 21.1563 1.10778 -1.1558
19 1 20.9994 0.758294 -0.152714
20 1 20.7201 -0.20285 -0.0976758
21 1 20.6058 0.273651 0.690099
22 1 20.6573 -0.58822 1.14638
23 1 21.0454 -1.43365 0.823222
24 1 21.352 -0.893929 0.11079
25 1 21.8649 -1.33412 -0.17265
26 1 22.1393 -2.00987 0.60662
27 1 21.7391 -2.29675 1.38502
28 1 20.9768 -1.81386 1.82135
29 1 20.824 -1.00975 2.45287
30 1 21.4104 -0.192778 2.64317
31 1 21.091 0.248435 1.8166
32 1 21.9263 0.606317 1.83837
33 1 22.015 0.735234 0.897634
34 1 22.6026 1.39444 0.419335
35 1 23.1637 1.90484 -0.283543
36 1 22.7763 2.39134 0.379791
37 1 22.6006 2.88029 -0.421695
38 1 22.0669 2.89931 -1.33022
39 1 21.8578 2.15518 -1.87485
40 1 21.5168 2.09614 -0.955459
41 1 22.4622 1.91998 -1.01887
42 1 22.0959 1.07466 -0.421148
43 1 22.887 0.835119 -0.98746
44 1 22.58 0.0536745 -1.67695
45 1 22.1625 0.980226 -1.80754
46 1 21.6103 0.223956 -2.02881
47 1 20.8561 -0.312975 -1.52216
48 1 21.0648 -0.972224 -2.24444
49 1 21.4322 -1.65951 -1.52698
50 1 21.1923 -1.95322 -0.650642
ITEM: TIMESTEP
16000
ITEM: NUMBER OF ATOMS
50
ITEM: BOX BOUNDS pp pp pp
-5.0000000000000000e+01 5.0000000000000000e+01
-5.0000000000000000e+01 5.0000000000000000e+01
-5.0000000000000000e+01 5.0000000000000000e+01
ITEM: ATOMS id type x y z
1 1 23.7547 0.714328 1.67762
2 1 24.0452 0.098449 0.994339
3 1 23.8019 -0.57487 1.73422
4 1 23.0551 -0.174672 2.14867
5 1 23.06 -0.136766 1.04115
6 1 22.1274 -0.365479 1.23089
7 1 22.1186 -1.3741 0.912662
8 1 22.8787 -1.32185 1.6718
9 1 22.4161 -0.974262 2.49165
10 1 21.5745 -0.261626 2.29204
11 1 20.7784 -0.547775 1.76797
12 1 20.6758 -1.04775 0.84293
13 1 20.1954 -0.75241 0.195945
14 1 20.0515 -0.169637 -0.647222
15 1 20.4041 0.606471 -0.0198966
16 1 20.9341 -0.004467 0.603385
17 1 21.8356 0.255255 0.279392
18 1 22.6723 0.446857 -0.344438
19 1 23.2358 0.361804 -1.30452
20 1 22.3814 -0.228432 -1.19076
21 1 22.025 0.656801 -1.10084
22 1 21.2403 0.350652 -0.60719
23 1 21.5313 -0.530423 -0.850367
24 1 22.1467 -1.04361 -0.0636233
25 1 22.4992 -1.34518 -0.988426
26 1 21.605 -1.77056 -0.875429
27 1 20.8797 -1.2348 -0.548343
28 1 20.5125 -1.82848 -1.46195
29 1 21.0118 -1.18625 -1.79928
30 1 20.6602 -0.239148 -1.69571
31 1 19.9465 0.276549 -2.31692
32 1 20.6531 0.780491 -1.99287
33 1 20.5081 1.00875 -1.03498
34 1 20.1484 2.04502 -1.10596
35 1 20.5251 2.86387 -0.534473
36 1 21.5393 3.02083 -0.426592
37 1 21.4137 2.09104 -0.909385
38 1 20.7782 1.6633 0.0356262
39 1 21.7361 1.43227 0.0668706
40 1 21.6618 1.03899 1.14016
41 1 22.6469 0.869036 1.30064
42 1 23.4079 0.75273 0.548231
43 1 24.4267 1.09588 0.0838383
44 1 25.1101 0.543875 -0.367485
45 1 24.6628 -0.377638 0.0514528
46 1 24.0692 0.166639 -0.507017
47 1 23.2673 -0.612464 -0.484416
48 1 23.8623 -1.15464 0.12387
49 1 23.1187 -1.68657 0.388348
50 1 22.9098 -2.19604 -0.445617
ITEM: TIMESTEP
17000
ITEM: NUMBER OF ATOMS
50
ITEM: BOX BOUNDS pp pp pp
-5.0000000000000000e+01 5.0000000000000000e+01
-5.0000000000000000e+01 5.0000000000000000e+01
-5.0000000000000000e+01 5.0000000000000000e+01
ITEM: ATOMS id type x y z
1 1 20.1332 -1.67942 2.77005
2 1 19.8791 -1.04049 2.0567
3 1 20.6317 -0.87914 2.10504
4 1 21.1735 0.0291316 1.9249
5 1 20.014 -0.0314046 1.62302
6 1 20.3946 -0.603574 1.04433
7 1 19.4969 -0.13824 0.709155
8 1 19.4633 -0.464638 -0.102834
9 1 19.5691 -1.18014 0.782294
10 1 20.318 -1.59034 0.468758