ITEM: TIMESTEP
0
ITEM: NUMBER OF ATOMS
50
ITEM: BOX BOUNDS pp pp pp
-5.0000000000000000e+01 5.0000000000000000e+01
-5.0000000000000000e+01 5.0000000000000000e+01
-5.0000000000000000e+01 5.0000000000000000e+01
ITEM: ATOMS id type x y z
1 1 -2.34215 0 0
2 1 -1.34439 0 0
3 1 -0.348884 0 0
4 1 0.646607 0 0
5 1 1.64213 0 0
6 1 2.63767 0 0
7 1 3.63317 0 0
8 1 4.62867 0 0
9 1 5.62417 0 0
10 1 6.61967 0 0
11 1 7.61517 0 0
12 1 8.61068 0 0
13 1 9.60618 0 0
14 1 10.6017 0 0
15 1 11.5972 0 0
16 1 12.5927 0 0
17 1 13.5882 0 0
18 1 14.5837 0 0
19 1 15.5792 0 0
20 1 16.5747 0 0
21 1 17.5702 0 0
22 1 18.5657 0 0
23 1 19.5612 0 0
24 1 20.5567 0 0
25 1 21.5522 0 0
26 1 22.5478 0 0
27 1 23.5433 0 0
28 1 24.5388 0 0
29 1 25.5343 0 0
30 1 26.5298 0 0
31 1 27.5253 0 0
32 1 28.5208 0 0
33 1 29.5163 0 0
34 1 30.5118 0 0
35 1 31.5073 0 0
36 1 32.5028 0 0
37 1 33.4983 0 0
38 1 34.4938 0 0
39 1 35.4893 0 0
40 1 36.4848 0 0
41 1 37.4803 0 0
42 1 38.4758 0 0
43 1 39.4713 0 0
44 1 40.4668 0 0
45 1 41.4623 0 0
46 1 42.4579 0 0
47 1 43.4534 0 0
48 1 44.4489 0 0
49 1 45.4444 0 0
50 1 46.4422 0 0
ITEM: TIMESTEP
1000
ITEM: NUMBER OF ATOMS
50
ITEM: BOX BOUNDS pp pp pp
-5.0000000000000000e+01 5.0000000000000000e+01
-5.0000000000000000e+01 5.0000000000000000e+01
-5.0000000000000000e+01 5.0000000000000000e+01
ITEM: ATOMS id type x y z
1 1 9.16762 0.573658 0.44926
2 1 8.79475 1.21351 0.942385
3 1 9.00022 1.71321 0.00851456
4 1 9.81747 1.40936 -0.252634
5 1 10.1856 0.474118 -0.435206
6 1 10.2297 0.741543 0.400038
7 1 11.1876 0.649728 0.411855
8 1 11.2419 -0.229126 0.718826
9 1 10.757 -0.760282 -0.0570819
10 1 11.2903 0.164997 -0.471342
11 1 12.1772 0.455897 -0.149893
12 1 12.0924 -0.541474 -0.666032
13 1 12.7029 0.296571 -1.03687
14 1 13.5314 -0.315794 -1.12031
15 1 13.3254 0.0152141 -0.180566
16 1 14.1262 -0.642504 -0.337921
17 1 14.9641 -0.355274 -0.243444
18 1 15.7925 0.179768 -0.272805
19 1 16.6452 -0.296286 -0.109456
20 1 17.6203 -0.464416 -0.286935
21 1 18.4221 -0.889152 -0.919061
22 1 18.6719 -0.809398 0.0491878
23 1 19.4667 -1.03489 -0.434423
24 1 19.8201 -0.919328 0.489569
25 1 20.5211 -0.884416 -0.112466
26 1 21.3387 -1.48671 0.114704
27 1 22.2492 -0.987652 -0.00147622
28 1 23.1621 -1.2524 -0.546603
29 1 24.1448 -1.3719 -0.983497
30 1 25.1186 -1.00705 -1.31076
31 1 26.0911 -1.0648 -1.05675
32 1 27.0103 -0.591207 -1.09937
33 1 28.0139 -0.48071 -1.08341
34 1 29.0217 -0.333878 -1.33156
35 1 29.8816 -0.131369 -0.805788
36 1 29.3256 0.289523 -0.19017
37 1 30.3387 0.2497 0.117725
38 1 31.1757 0.437316 -0.440416
39 1 31.9798 0.668551 0.271865
40 1 32.8818 0.45942 0.025537
41 1 33.6391 0.617427 0.572156
42 1 34.5076 0.0350394 0.472014
43 1 34.505 0.88756 1.19987
44 1 35.0682 1.18027 0.5288
45 1 35.4813 0.348044 0.179704
46 1 35.2545 0.130905 1.22719
47 1 35.8318 0.967168 1.22399
48 1 35.2873 1.52902 1.79212
49 1 35.2786 0.840346 2.36337
50 1 34.3615 0.322148 2.37756
ITEM: TIMESTEP
2000
ITEM: NUMBER OF ATOMS
50
ITEM: BOX BOUNDS pp pp pp
-5.0000000000000000e+01 5.0000000000000000e+01
-5.0000000000000000e+01 5.0000000000000000e+01
-5.0000000000000000e+01 5.0000000000000000e+01
ITEM: ATOMS id type x y z
1 1 21.7145 1.43065 -1.81267
2 1 21.5289 1.57868 -0.852759
3 1 21.7358 1.73403 0.161801
4 1 21.179 1.06873 0.649331
5 1 21.5009 0.262241 1.65568
6 1 21.4799 -0.496239 0.819469
7 1 21.1911 -1.46769 0.640673
8 1 20.507 -0.801767 1.22494
9 1 20.2141 -0.0132379 0.749493
10 1 20.5893 0.43206 -0.127352
11 1 19.5397 0.0300586 -0.265805
12 1 20.3 -0.833796 -0.594038
13 1 20.5314 -1.80947 -0.199872
14 1 21.1741 -1.38057 -0.714669
15 1 21.1937 -0.499648 -0.111312
16 1 21.6588 0.189411 -0.0850769
17 1 21.6979 0.561702 -0.739012
18 1 21.8696 -0.517815 -0.84292
19 1 21.6699 0.268865 -1.70183
20 1 20.8003 0.757315 -1.11478
21 1 20.3407 0.0666997 -1.30971
22 1 20.6849 0.390007 -2.22456
23 1 21.276 0.0372366 -2.88915
24 1 21.9298 -0.89307 -2.73549
25 1 22.4712 -0.615168 -3.60211
26 1 23.2877 -0.389316 -2.87188
27 1 23.0855 0.185889 -1.97428
28 1 22.7308 0.958935 -1.46755
29 1 22.8216 0.26774 -0.603567
30 1 22.5427 0.810677 0.00144654
31 1 23.1258 0.334948 0.60563
32 1 22.5156 -0.402833 0.192108
33 1 22.4824 -1.26882 0.773205
34 1 22.603 -2.03185 0.0521395
35 1 23.4486 -2.19851 -0.459868
36 1 23.9945 -1.75465 0.231396
37 1 23.9424 -1.16216 -0.288553
38 1 23.8735 -0.800296 0.808919
39 1 23.2801 -1.24761 1.46736
40 1 22.775 -0.299918 1.32513
41 1 22.4869 0.494141 1.7406
42 1 22.1048 -0.467817 1.9824
43 1 23.0631 0.269833 2.54112
44 1 23.8088 -0.445958 2.27446
45 1 23.596 0.436479 1.65347
46 1 23.4052 1.35371 1.54079
47 1 22.8429 2.0369 1.48804
48 1 21.8117 1.70171 1.21599
49 1 21.9673 2.539 1.61157
50 1 22.1258 1.60055 2.18165
ITEM: TIMESTEP
3000
ITEM: NUMBER OF ATOMS
50
ITEM: BOX BOUNDS pp pp pp
-5.0000000000000000e+01 5.0000000000000000e+01
-5.0000000000000000e+01 5.0000000000000000e+01
-5.0000000000000000e+01 5.0000000000000000e+01
ITEM: ATOMS id type x y z
1 1 21.742 1.5696 1.63054
2 1 22.2865 0.995371 0.944392
3 1 22.7134 0.748316 0.138878
4 1 22.9773 1.65988 -0.414663
5 1 22.9437 1.24493 -1.27813
6 1 21.845 1.29732 -1.28189
7 1 21.7598 0.353764 -1.06308
8 1 20.9891 0.628957 -1.14202
9 1 20.8537 -0.422361 -0.802464
10 1 21.4039 -1.04936 -0.780768
11 1 21.8091 -1.71147 -0.460313
12 1 22.2789 -1.68551 -1.42435
13 1 22.96 -1.27357 -1.95758
14 1 23.5049 -1.6275 -1.35272
15 1 23.8513 -0.93574 -0.813303
16 1 22.8873 -1.23185 -0.484385
17 1 22.5568 -1.28579 0.540499
18 1 22.2893 -0.340906 -0.262414
19 1 22.8798 0.152581 -0.925277
20 1 22.4686 0.0697435 -1.84657
21 1 23.2401 -0.203006 -2.5091
22 1 23.1238 0.250486 -3.19492
23 1 23.0675 0.910013 -2.35926
24 1 24.0831 0.472942 -2.66988
25 1 23.6743 0.391997 -1.64161
26 1 24.1485 1.21854 -1.26625
27 1 23.8736 1.06177 -0.385291
28 1 23.6312 0.339087 0.447524
29 1 23.8724 -0.314002 1.35294
30 1 24.1981 -0.850194 0.427583
31 1 23.2075 -0.583881 0.459835
32 1 22.5677 -0.609831 1.37066
33 1 22.1266 -0.309428 0.716116
34 1 21.6011 0.478333 0.257308
35 1 21.263 -0.482026 0.136745
36 1 21.5276 -1.16955 0.559848
37 1 20.9912 -0.592986 1.39319
38 1 19.7899 -0.946947 1.48741
39 1 20.0282 -0.599292 0.735879
40 1 20.0119 -0.215227 0.0967124
41 1 20.5139 0.470536 0.964939
42 1 20.5002 1.42302 1.25807
43 1 19.5934 0.956054 1.5862
44 1 19.4733 0.168252 1.1496
45 1 19.3773 0.161448 2.24449
46 1 19.9142 0.736823 2.65972
47 1 20.5384 0.259389 2.06038
48 1 21.4976 0.403594 1.41966
49 1 22.3329 0.426062 1.96427
50 1 21.7312 -0.408372 2.31282
ITEM: TIMESTEP
4000
ITEM: NUMBER OF ATOMS
50
ITEM: BOX BOUNDS pp pp pp
-5.0000000000000000e+01 5.0000000000000000e+01
-5.0000000000000000e+01 5.0000000000000000e+01
-5.0000000000000000e+01 5.0000000000000000e+01
ITEM: ATOMS id type x y z
1 1 22.8827 2.29719 -0.327078
2 1 22.6321 1.40934 -0.769789
3 1 22.4667 0.93225 -0.111995
4 1 23.149 1.3198 0.360134
5 1 23.951 0.832473 0.354851
6 1 23.5631 0.991995 -0.579362
7 1 23.1011 -0.0320465 -0.433491
8 1 22.2415 -0.297382 -0.32834
9 1 22.157 -1.09658 -0.579286
10 1 23.2273 -1.05192 -0.673758
11 1 23.6796 -1.57937 -0.302663
12 1 22.6901 -1.93505 0.0851109
13 1 23.4929 -1.56596 0.708404
14 1 22.8464 -0.841636 0.415336
15 1 22.5101 -1.45372 1.00187
16 1 21.7878 -0.797535 0.92717
17 1 21.9511 0.0397527 0.727587
18 1 22.5857 -0.116675 1.33307
19 1 22.8904 0.665429 1.22411
20 1 23.5665 -0.0546262 0.789791
21 1 23.7586 -0.225266 1.76157
22 1 24.0881 0.726224 1.57995
23 1 23.653 0.819225 2.13337
24 1 23.1351 0.210185 2.4751
25 1 23.159 -0.849108 2.32705
26 1 23.0883 -1.72625 2.67263
27 1 22.245 -0.956824 2.79922
28 1 21.918 -0.780599 2.10869
29 1 21.7492 0.155923 1.87683
30 1 21.5075 1.04793 1.40592
31 1 21.8973 1.83262 0.577481
32 1 21.325 0.946212 0.0641727
33 1 21.6761 1.9414 -0.590321
34 1 21.8793 1.53899 -1.59806
35 1 22.3013 0.428091 -1.60226
36 1 21.6566 0.334215 -0.92347
37 1 21.1753 0.549148 -1.89626
38 1 20.8163 1.26323 -1.14969
39 1 20.3871 0.310917 -0.322601
40 1 19.6626 0.718547 -1.0348
41 1 19.3046 0.304015 -2.0809
42 1 18.8646 -0.122682 -1.49524
43 1 19.6732 -0.416708 -1.2004
44 1 20.2343 -0.15572 -1.71907
45 1 20.5138 -0.473789 -2.399
46 1 21.3419 -0.38329 -1.56965
47 1 21.4482 -0.926808 -2.31828
48 1 21.3571 -1.87328 -1.6167
49 1 20.3831 -1.23838 -1.4287
50 1 20.9283 -0.663898 -0.658263
ITEM: TIMESTEP
5000
ITEM: NUMBER OF ATOMS
50
ITEM: BOX BOUNDS pp pp pp
-5.0000000000000000e+01 5.0000000000000000e+01
-5.0000000000000000e+01 5.0000000000000000e+01
-5.0000000000000000e+01 5.0000000000000000e+01
ITEM: ATOMS id type x y z
1 1 21.7969 1.68636 1.19771
2 1 21.8156 1.10628 1.94249
3 1 22.0349 0.0568082 2.14559
4 1 22.8094 0.396803 1.54495
5 1 21.8236 0.347601 1.05982
6 1 22.0715 -0.208374 0.103254
7 1 22.7676 0.263361 0.455447
8 1 23.0493 -0.410573 0.873778
9 1 22.7243 -0.881953 1.60934
10 1 23.5856 -1.4603 1.4244
11 1 22.8489 -1.79087 0.765893
12 1 22.5052 -1.10394 0.118732
13 1 21.7811 -1.65918 0.230746
14 1 21.0552 -2.03135 -0.526938
15 1 21.417 -2.34753 -1.56864
16 1 22.0186 -1.7018 -1.1934
17 1 21.639 -0.96942 -0.764985
18 1 21.1554 -0.347471 -0.288391
19 1 20.979 -0.91677 0.538183
20 1 21.6525 -0.673426 1.16223
21 1 21.1027 -0.364746 1.97356
22 1 20.4156 -1.04376 1.46658
23 1 20.7185 -0.0917057 0.979102
24 1 20.169 0.705828 0.704204
25 1 19.2268 0.772008 0.862818
26 1 19.8589 1.73634 1.21298
27 1 19.5918 2.27229 0.582907
28 1 20.1989 2.85661 0.0651388
29 1 19.4261 2.27035 -0.352108
30 1 20.1907 2.1457 -0.936272
31 1 20.3174 1.12076 -0.476283
32 1 20.8372 0.53821 -1.22004
33 1 21.5844 1.24162 -1.51904
34 1 22.367 2.00745 -1.21949
35 1 22.965 1.18404 -1.34576
36 1 23.0171 1.09313 -0.255318
37 1 21.9909 1.00658 0.26422
38 1 22.0096 0.632374 -0.699921
39 1 22.2034 -0.0880951 -1.26197
40 1 22.9872 0.225285 -1.1152
41 1 23.8756 -0.150679 -1.74345
42 1 24.8575 -0.572372 -1.68384
43 1 24.9306 0.453117 -1.43639
44 1 24.1462 0.692222 -0.977571
45 1 24.1363 -0.308279 -0.762466
46 1 23.5331 -0.536741 -0.137217
47 1 24.2453 -1.468 -0.329383
48 1 23.7813 -1.31821 -1.06623
49 1 22.9799 -1.81106 -0.531638
50 1 23.3054 -2.55457 0.127863
ITEM: TIMESTEP
6000
ITEM: NUMBER OF ATOMS
50
ITEM: BOX BOUNDS pp pp pp
-5.0000000000000000e+01 5.0000000000000000e+01
-5.0000000000000000e+01 5.0000000000000000e+01
-5.0000000000000000e+01 5.0000000000000000e+01
ITEM: ATOMS id type x y z
1 1 20.7754 -0.572585 1.23434
2 1 20.1571 0.397278 1.10291
3 1 19.5114 -0.0891912 0.227638
4 1 20.2637 0.444253 -0.243195
5 1 20.3535 0.869206 -1.03254
6 1 21.1373 0.4356 -1.22629
7 1 20.8388 -0.307614 -0.88599
8 1 20.6876 -0.468995 0.0580496
9 1 21.5533 -0.334395 0.135315
10 1 21.3881 -1.22523 0.724146
11 1 22.21 -1.56442 0.583552
12 1 22.351 -0.679693 0.83314
13 1 22.5872 -0.822959 -0.270616
14 1 23.405 -1.0858 -0.0494604
15 1 23.4001 -1.21019 -0.931902
16 1 23.1692 -1.40875 -1.98232
17 1 22.3258 -1.41434 -1.31173
18 1 21.8879 -0.628741 -1.0749
19 1 21.5014 -1.19454 -0.544257
20 1 20.3315 -1.46132 -0.272696
21 1 19.7651 -0.73177 -1.01337
22 1 19.535 0.0387397 -1.50649
23 1 20.5223 -0.0407129 -2.02208
24 1 20.9407 0.730894 -2.23472
25 1 21.1558 1.36434 -1.68688
26 1 21.5528 2.04114 -1.18552
27 1 22.4111 1.25324 -1.29317
28 1 23.101 1.15892 -0.54104
29 1 23.5092 1.09748 -1.46615
30 1 23.7439 0.244076 -1.67164
31 1 23.2115 -0.0585663 -0.815126
32 1 24.0871 -0.598065 -0.650394
33 1 24.1889 0.0389706 -0.0730332
34 1 24.5633 -0.313884 0.782543
35 1 23.5688 -0.292561 0.806846
36 1 23.9486 0.475973 1.33451
37 1 23.658 0.716123 0.385911
38 1 22.7937 0.200577 0.215124
39 1 22.6891 1.34163 0.462662
40 1 22.2948 0.858437 1.30652
41 1 23.0115 1.28247 1.81122
42 1 22.4748 1.74538 2.37022
43 1 21.5563 1.07236 1.99455
44 1 21.3951 1.46746 1.03208
45 1 21.1182 0.700879 0.227022
46 1 21.5079 0.361995 1.11052
47 1 21.6984 -0.124161 1.70908
48 1 22.6788 -0.609917 1.84508
49 1 23.2583 -1.38395 2.21603
50 1 22.7247 -1.71507 1.47648
ITEM: TIMESTEP
7000
ITEM: NUMBER OF ATOMS
50
ITEM: BOX BOUNDS pp pp pp
-5.0000000000000000e+01 5.0000000000000000e+01
-5.0000000000000000e+01 5.0000000000000000e+01
-5.0000000000000000e+01 5.0000000000000000e+01
ITEM: ATOMS id type x y z
1 1 19.3464 -0.996648 -2.77595
2 1 19.3207 0.0849896 -2.62453
3 1 20.0281 -0.254481 -2.85323
4 1 20.4362 -1.08012 -2.65011
5 1 20.5344 -1.42738 -1.80977
6 1 21.2568 -0.819889 -1.37885
7 1 21.5868 -0.504959 -2.22844
8 1 21.9787 -0.00253018 -1.48549
9 1 22.2261 -0.713861 -1.34944
10 1 21.4756 -0.859644 -0.410086
11 1 20.4738 -0.990997 0.225826
12 1 21.012 -0.369504 0.892986
13 1 21.6022 -0.808284 1.50389
14 1 22.2146 -1.23925 2.2523
15 1 22.6846 -1.11172 1.2209
16 1 23.3502 -0.877379 0.768464
17 1 23.0431 -0.486406 -0.308897
18 1 22.3501 -1.33285 -0.307257
19 1 23.1211 -1.38115 -0.954239
20 1 23.8669 -0.999493 -1.37482
21 1 23.6524 -0.016918 -1.20389
22 1 22.8588 0.560352 -1.15676
23 1 23.695 1.13201 -0.994047
24 1 24.3522 1.3209 -0.174527
25 1 23.5367 0.644281 -0.0773458
26 1 24.2737 0.171016 0.370585
27 1 24.5005 1.00356 0.887587
28 1 24.3391 0.274439 1.39847
29 1 23.6382 0.216201 1.585
30 1 22.9047 -0.134654 1.3209
31 1 22.8585 0.734607 0.682427
32 1 23.528 1.26005 0.888029
33 1 23.9647 1.20488 1.86217
34 1 23.1967 1.34172 2.40867
35 1 22.9608 0.260753 2.57116
36 1 22.3095 0.4437 2.03836
37 1 21.8728 0.327822 1.13952
38 1 22.1821 -0.22155 0.472881
39 1 21.9037 0.274134 -0.0808458
40 1 22.0646 1.22405 0.197947
41 1 22.1799 1.29499 1.27067
42 1 21.1855 0.944214 1.44154
43 1 20.5833 1.41599 0.921986
44 1 21.035 0.756127 0.335123
45 1 20.907 0.0577548 -0.450383
46 1 20.8017 0.135319 -1.40022
47 1 19.9249 -0.530147 -1.10153
48 1 19.7747 0.300689 -0.494117
49 1 20.0836 0.243818 0.448397
50 1 19.5228 -0.468545 0.538968
ITEM: TIMESTEP
8000
ITEM: NUMBER OF ATOMS
50
ITEM: BOX BOUNDS pp pp pp
-5.0000000000000000e+01 5.0000000000000000e+01
-5.0000000000000000e+01 5.0000000000000000e+01
-5.0000000000000000e+01 5.0000000000000000e+01
ITEM: ATOMS id type x y z
1 1 23.0858 2.96127 -0.326902
2 1 22.8742 1.96742 -0.0362519
3 1 22.6028 1.83503 -0.886324
4 1 22.3034 1.15044 -1.5167
5 1 22.3589 0.183928 -2.11613
6 1 22.8415 0.175984 -1.21762
7 1 23.241 -0.639518 -0.931129
8 1 23.5506 -1.3622 -1.52378
9 1 23.453 -2.31524 -2.1857
10 1 22.5612 -1.53675 -2.11269
11 1 22.5904 -1.51041 -0.99583
12 1 23.1963 -2.20386 -0.378153
13 1 22.7487 -1.99032 0.357405
14 1 21.8766 -2.32917 0.584282
15 1 21.223 -2.41773 1.40698
16 1 20.3531 -2.28196 0.768259
17 1 20.4527 -1.45598 0.117433
18 1 21.0655 -1.42139 1.0199
19 1 22.0788 -0.983428 0.93179
20 1 22.3556 -1.74963 1.2981
21 1 23.174 -1.10929 1.29746
22 1 22.7258 -0.604105 1.89933
23 1 21.9505 0.124008 2.41152
24 1 21.7842 0.00383746 1.44279
25 1 20.9992 0.178694 1.61678
26 1 21.3424 1.01532 1.58862
27 1 21.1666 1.76829 1.17025
28 1 22.0784 2.02836 1.63213
29 1 22.9282 1.75023 1.12122
30 1 22.4219 1.0173 1.64474
31 1 22.7174 0.367542 1.18669
32 1 21.8838 0.867657 0.790073
33 1 21.913 1.72023 0.295139
34 1 20.9704 1.05947 0.264422
35 1 21.1597 0.219918 0.0708439
36 1 20.656 -0.530084 0.588783
37 1 20.5092 -0.368104 -0.49768
38 1 21.5405 -0.808993 -0.162889
39 1 22.241 -0.0752572 0.334594
40 1 22.9786 -0.602648 0.436192
41 1 23.6014 0.223518 -0.0166775
42 1 23.6382 0.86825 0.502357
43 1 22.7369 0.934366 0.11566
44 1 21.955 0.878241 -0.344314
45 1 21.3052 0.767001 -1.03677
46 1 20.4777 1.02207 -1.70259
47 1 20.8394 1.74941 -1.40567
48 1 21.5759 0.987128 -2.11279
49 1 21.2019 0.52409 -2.9526
50 1 21.2146 -0.0529002 -2.43455
ITEM: TIMESTEP
9000
ITEM: NUMBER OF ATOMS
50
ITEM: BOX BOUNDS pp pp pp
-5.0000000000000000e+01 5.0000000000000000e+01
-5.0000000000000000e+01 5.0000000000000000e+01
-5.0000000000000000e+01 5.0000000000000000e+01
ITEM: ATOMS id type x y z
1 1 23.7128 2.64615 0.489085
2 1 23.0699 1.76 0.468095
3 1 22.3682 1.50175 1.17938
4 1 21.1958 1.31069 1.15036
5 1 21.0564 0.400175 1.2457
6 1 22.0474 0.495061 1.61588
7 1 22.7626 0.963595 2.33292
8 1 23.6624 0.568195 2.67163
9 1 23.2161 -0.0851535 2.19406
10 1 23.2311 -0.5871 1.15465
11 1 23.2286 -1.34252 1.79616
12 1 22.4161 -0.757569 2.05935
13 1 21.5074 -0.835594 1.56242
14 1 21.4115 -0.500862 0.602093
15 1 21.5094 -1.4711 0.402294
16 1 20.732 -1.91437 -0.367792
17 1 19.9194 -1.79922 -0.71628
18 1 19.6301 -1.15673 0.0413148
19 1 19.5311 -0.221286 -0.19719
20 1 20.1579 0.467161 -0.676036
21 1 20.7304 0.213359 0.242063
22 1 20.0165 0.219472 0.872694
23 1 20.5247 -0.839973 1.28314
24 1 20.6373 -0.930903 0.115669
25 1 20.2589 -0.481121 -0.977362
26 1 21.0203 -0.287511 -0.677674
27 1 21.2431 0.598264 -1.09674
28 1 21.8158 1.0766 -0.337812
29 1 22.5452 0.57323 -0.469024
30 1 22.328 -0.409812 -0.439441
31 1 22.103 -1.39727 -0.436543
32 1 21.6515 -2.35614 -0.516895
33 1 21.8769 -1.80238 -1.45327
34 1 21.7282 -0.752888 -1.42885
35 1 22.4142 0.0838532 -1.46516
36 1 23.2236 -0.21798 -1.63678
37 1 24.0348 0.0799871 -1.44737
38 1 23.711 -0.257467 -0.587808
39 1 23.2685 -0.462432 0.128742
40 1 22.4823 -0.890361 0.458777
41 1 22.4546 0.117623 0.668241
42 1 23.1367 0.749305 0.859158
43 1 23.8438 0.938282 -0.0862053
44 1 24.2119 1.18629 -0.992983
45 1 23.198 0.838412 -1.17428
46 1 23.2509 1.75629 -0.587337
47 1 22.5204 1.71248 -1.24909
48 1 21.9003 1.29935 -1.83885
49 1 21.7717 0.525203 -2.28756
50 1 22.2313 -0.323028 -2.44955
ITEM: TIMESTEP
10000
ITEM: NUMBER OF ATOMS
50
ITEM: BOX BOUNDS pp pp pp
-5.0000000000000000e+01 5.0000000000000000e+01
-5.0000000000000000e+01 5.0000000000000000e+01
-5.0000000000000000e+01 5.0000000000000000e+01
ITEM: ATOMS id type x y z
1 1 20.9621 1.84421 0.515939
2 1 20.9401 1.01198 0.231577
3 1 20.4994 0.577744 -0.548883
4 1 21.2878 1.15742 -0.699705
5 1 20.9891 1.12263 -1.66334
6 1 21.7017 0.381527 -1.22625
7 1 21.341 -0.145754 -0.407974
8 1 20.9164 -0.506884 -1.19246
9 1 20.4538 -0.691941 -0.259081
10 1 20.657 0.000173791 0.439862
11 1 19.9373 0.190217 0.981433
12 1 19.0674 0.0732587 0.480806
13 1 18.1606 -0.0234651 1.23766
14 1 18.8192 0.110382 1.90639
15 1 19.2069 -0.473016 1.439
16 1 19.7302 -1.05726 0.820162
17 1 20.2707 -2.05889 0.654403
18 1 20.8792 -1.77562 -0.01941
19 1 21.689 -1.71919 -0.891076
20 1 22.4014 -1.14279 -0.178891
21 1 22.2061 -0.72434 -0.967372
22 1 22.5584 -0.161555 -1.92903
23 1 22.2735 -0.131398 -2.84642
24 1 22.1825 0.72271 -2.36354
25 1 22.7688 1.29169 -1.49233
26 1 23.3439 0.563002 -2.16054
27 1 23.084 0.339773 -0.984121
28 1 22.4852 0.0808424 -0.292514
29 1 23.2951 -0.532185 -0.343113
30 1 23.7381 -0.39512 -1.35996
31 1 24.211 -1.28862 -0.961704
32 1 23.6436 -1.47281 -0.0994001
33 1 24.512 -1.27565 0.456134
34 1 24.318 -0.457166 -0.31931
35 1 24.6566 0.0626729 0.398058
36 1 23.7497 -0.142893 0.548114
37 1 23.1346 0.522043 1.02732
38 1 23.5492 0.597047 1.92802
39 1 22.5702 0.161036 2.04427
40 1 22.8923 -0.643866 1.44732
41 1 22.3979 -0.142142 0.670232
42 1 21.5462 -0.723246 0.633087
43 1 21.3458 -0.181508 1.28275
44 1 21.6001 0.842225 1.54592
45 1 22.1386 0.899622 0.826499
46 1 22.6877 1.46214 1.2516
47 1 23.1101 1.40787 0.353697
48 1 24.0133 0.940322 0.427885
49 1 23.7713 0.602277 -0.135459
50 1 24.8058 0.902507 -0.206254
ITEM: TIMESTEP
11000
ITEM: NUMBER OF ATOMS
50
ITEM: BOX BOUNDS pp pp pp
-5.0000000000000000e+01 5.0000000000000000e+01
-5.0000000000000000e+01 5.0000000000000000e+01
-5.0000000000000000e+01 5.0000000000000000e+01
ITEM: ATOMS id type x y z
1 1 23.2 2.05864 -2.98509
2 1 23.6626 1.0734 -3.16879
3 1 23.0095 0.377908 -2.70466
4 1 22.4621 0.975588 -1.87541
5 1 21.7283 1.50385 -1.64217
6 1 22.6047 1.61739 -1.11181
7 1 22.4345 1.41403 -0.36801
8 1 21.8601 0.595987 -1.05515
9 1 21.4983 -0.222732 -1.48234
10 1 21.5793 -1.22167 -1.58154
11 1 21.0216 -0.918131 -0.750788
12 1 21.0656 -1.89891 -0.596012
13 1 20.6367 -2.38989 0.0243471
14 1 20.6181 -2.07567 0.781571
15 1 20.128 -1.49149 0.0572309
16 1 20.5766 -0.23765 -0.035301
17 1 21.1459 0.650481 -0.214276
18 1 22.0949 0.564682 0.0440955
19 1 23.0722 0.488336 -0.381366
20 1 22.7905 -0.362764 -0.673406
21 1 22.5526 -0.185217 -1.7986
22 1 23.6142 0.0713236 -1.41219
23 1 23.86 0.978917 -1.06442
24 1 23.9131 1.47416 -2.08986
25 1 24.4363 1.79356 -1.16266
26 1 23.6156 1.66832 -0.339411
27 1 23.5425 2.06695 0.392832
28 1 23.0549 1.1769 0.560885
29 1 23.0364 0.152215 0.677035
30 1 22.719 -0.548071 1.38697
31 1 22.05 -1.00008 1.85566
32 1 21.4036 -0.832103 2.38737
33 1 20.707 -1.50523 2.3383
34 1 19.9067 -0.854284 2.4898
35 1 20.316 -0.421349 1.63359
36 1 20.2169 -1.18803 1.10283
37 1 21.1286 -1.24817 1.24003
38 1 21.0909 -1.11607 0.346288
39 1 21.7362 -1.75953 0.486708
40 1 22.2152 -2.20894 -0.225899
41 1 22.753 -1.56103 -0.134892
42 1 22.0437 -1.15316 -0.407717
43 1 21.9522 -0.536375 0.357291
44 1 21.6338 0.0365013 1.03402
45 1 21.2165 0.95057 0.836843
46 1 22.0482 1.56373 0.877429
47 1 21.5986 1.56987 1.68455
48 1 21.9599 0.738155 1.7153
49 1 22.8288 0.328927 2.20863
50 1 22.1602 1.04615 2.74215
ITEM: TIMESTEP
12000
ITEM: NUMBER OF ATOMS
50
ITEM: BOX BOUNDS pp pp pp
-5.0000000000000000e+01 5.0000000000000000e+01
-5.0000000000000000e+01 5.0000000000000000e+01
-5.0000000000000000e+01 5.0000000000000000e+01
ITEM: ATOMS id type x y z
1 1 26.9112 0.310772 -0.484367
2 1 26.1167 0.769239 -0.862225
3 1 25.7466 1.2846 0.0388986
4 1 25.9735 0.411877 0.416599
5 1 25.3751 -0.115379 -0.301246
6 1 24.3777 -0.101777 0.0713222
7 1 23.6272 0.36294 -0.00901496
8 1 23.2941 -0.449059 -0.327216
9 1 22.9994 -0.620234 -1.28692
10 1 21.9896 -0.771052 -1.47897
11 1 22.6409 -1.70521 -1.42973
12 1 23.2751 -1.41353 -2.19491
13 1 23.6365 -0.411732 -2.44149
14 1 22.7064 -0.295019 -2.35988
15 1 22.8898 0.570394 -1.73175
16 1 23.6636 0.205612 -1.23498
17 1 22.7233 0.508794 -0.708498
18 1 22.2704 0.0979418 0.00517726
19 1 22.917 -0.245545 0.703481
20 1 22.4425 0.0108206 1.2022
21 1 22.1576 0.635984 1.71278
22 1 22.9815 1.52526 1.70102
23 1 23.2124 0.696574 1.28148
24 1 23.6678 1.38591 0.847182
25 1 22.7088 1.177 0.444404
26 1 21.8541 0.811221 0.707404
27 1 21.4724 -0.102563 0.465566
28 1 21.2099 0.0958875 1.11442
29 1 20.2983 0.456246 1.28161
30 1 19.9359 0.100205 0.548006
31 1 18.9875 -0.394523 0.664108
32 1 18.2818 -0.881524 1.06328
33 1 18.9147 -0.571844 1.75574
34 1 19.7635 -0.755599 1.33383
35 1 19.7196 -1.49408 0.44183
36 1 19.6235 -0.729046 0.0129758
37 1 20.1126 -0.881187 -0.725118
38 1 20.7365 -1.57533 -0.197373
39 1 20.6149 -0.717354 0.266032
40 1 21.1473 -1.25306 1.06621
41 1 22.1501 -1.0993 1.07867
42 1 21.7557 -1.06264 0.142266
43 1 21.1561 -0.383906 -0.737897
44 1 21.1181 0.455422 -1.12981
45 1 21.7595 1.02815 -0.358313
46 1 20.8982 0.793735 0.207342
47 1 20.4327 1.75269 0.696923
48 1 20.1527 1.26617 0.0122996
49 1 19.9242 1.20374 -0.900169
50 1 20.1756 0.113322 -0.383183
ITEM: TIMESTEP
13000
ITEM: NUMBER OF ATOMS
50
ITEM: BOX BOUNDS pp pp pp
-5.0000000000000000e+01 5.0000000000000000e+01
-5.0000000000000000e+01 5.0000000000000000e+01
-5.0000000000000000e+01 5.0000000000000000e+01
ITEM: ATOMS id type x y z
1 1 22.1868 -0.16333 2.22704
2 1 21.75 0.398897 2.7552
3 1 21.4456 0.90816 1.98239
4 1 22.6103 0.837719 1.73327
5 1 23.1544 0.181712 2.33214
6 1 22.7046 -0.513727 1.41386
7 1 23.1961 -1.03314 1.93298
8 1 24.0072 -1.40205 2.27101
9 1 23.3933 -2.18322 1.99638
10 1 23.8227 -1.98109 1.0169
11 1 24.1939 -1.12101 1.17582
12 1 23.7009 -0.462364 0.934203
13 1 23.567 -0.0758548 0.0940251
14 1 22.8997 0.414503 -0.0208754
15 1 22.6078 -0.236017 0.42681
16 1 23.0732 -1.12088 0.60482
17 1 23.5879 -1.13162 -0.129328
18 1 23.1609 -0.751804 -0.846326
19 1 22.4039 -1.36341 -1.32265
20 1 22.0683 -1.18714 -0.218233
21 1 21.5762 -0.769189 0.610937
22 1 21.3148 -0.742264 1.54673
23 1 21.6778 0.0444696 1.28993
24 1 22.2392 0.826747 0.720884
25 1 23.3991 0.924322 1.06821
26 1 22.8113 1.54918 0.295392
27 1 21.9594 2.05046 0.249127
28 1 21.2682 2.20925 -0.470773
29 1 20.2476 1.70575 -0.508834
30 1 21.0023 1.11748 -0.679167
31 1 21.6374 0.757208 -0.00844785
32 1 20.8968 0.362592 0.146533
33 1 20.4598 -0.51714 0.693531
34 1 20.0197 -0.274212 0.00354081
35 1 20.123 -0.692216 -0.80129
36 1 20.4538 0.156887 -1.19571
37 1 21.495 0.200211 -1.6278
38 1 21.5233 -0.644146 -1.25129
39 1 21.155 -0.53183 -0.321224
40 1 22.0739 -0.107552 -0.584739
41 1 22.5619 0.0950211 -1.53812
42 1 22.9368 0.868529 -1.09654
43 1 22.3225 1.49279 -0.984859
44 1 21.9849 1.20668 -1.84343
45 1 21.4048 1.64655 -1.52591
46 1 20.8529 1.00603 -1.82263
47 1 20.7063 0.210846 -2.51072
48 1 20.4525 -0.667972 -1.94318
49 1 20.8437 -1.01712 -2.70559
50 1 21.5657 -0.48171 -3.56398
ITEM: TIMESTEP
14000
ITEM: NUMBER OF ATOMS
50
ITEM: BOX BOUNDS pp pp pp
-5.0000000000000000e+01 5.0000000000000000e+01
-5.0000000000000000e+01 5.0000000000000000e+01
-5.0000000000000000e+01 5.0000000000000000e+01
ITEM: ATOMS id type x y z
1 1 20.6981 0.578511 1.6121
2 1 19.8753 0.854112 1.85256
3 1 19.7191 -0.011137 0.895743
4 1 20.019 -0.608752 -0.0505372
5 1 20.8315 -0.765396 -0.612031
6 1 21.0124 -0.637455 0.494047
7 1 20.3069 -0.775644 1.25962
8 1 21.1451 -0.422566 1.63082
9 1 20.666 -0.0622061 2.42405
10 1 21.5368 0.337664 2.48651
11 1 21.6964 1.02645 1.72618
12 1 22.6369 0.738178 1.62641
13 1 21.8729 0.175103 0.904753
14 1 21.7009 0.167524 -0.0713791
15 1 21.9902 -0.720595 -0.0503201
16 1 22.1586 -1.36521 0.631801
17 1 21.4478 -1.67073 0.124433
18 1 21.2973 -2.47019 0.298798
19 1 21.2378 -2.51078 -0.679106
20 1 20.5317 -1.84604 -0.459353
21 1 19.9212 -1.05795 -1.00716
22 1 20.1806 0.169447 -0.797235
23 1 21.0132 0.19236 -0.841936
24 1 20.9451 1.04962 -0.404036
25 1 20.6926 0.354633 0.391915
26 1 21.2887 1.0009 0.752046
27 1 21.8948 1.48713 0.433011
28 1 22.4459 1.12625 -0.331859
29 1 22.1066 0.580986 -1.02209
30 1 22.0478 -0.481578 -1.1168
31 1 21.5103 -1.55313 -0.939146
32 1 22.2455 -2.17646 -0.333513
33 1 22.6867 -1.43333 -0.396839
34 1 23.7953 -1.32143 -0.0326893
35 1 23.0467 -0.869931 0.502032
36 1 23.4316 -0.143599 0.47496
37 1 24.1604 -0.341986 -0.277657
38 1 23.4386 0.0337601 -1.08548
39 1 22.7838 0.127526 -0.35494
40 1 23.7074 0.815736 -0.324572
41 1 23.1986 0.974424 0.727874
42 1 22.7819 1.96752 0.3514
43 1 23.6123 2.0439 -0.34708
44 1 22.9932 2.04754 -0.977904
45 1 22.957 1.08265 -1.2379
46 1 23.265 1.20989 -2.14178
47 1 24.0061 0.815334 -2.08885
48 1 24.4105 1.38462 -1.51679
49 1 24.9549 0.410027 -1.41949
50 1 24.5971 0.494318 -0.682568
ITEM: TIMESTEP
15000
ITEM: NUMBER OF ATOMS
50
ITEM: BOX BOUNDS pp pp pp
-5.0000000000000000e+01 5.0000000000000000e+01
-5.0000000000000000e+01 5.0000000000000000e+01
-5.0000000000000000e+01 5.0000000000000000e+01
ITEM: ATOMS id type x y z
1 1 21.6805 0.44828 -2.46637
2 1 21.6595 0.105508 -1.41895
3 1 20.7514 0.0208548 -1.63987
4 1 20.5599 -0.801904 -1.70811
5 1 20.8313 -0.716218 -0.755535
6 1 21.137 -0.0502899 -0.261061
7 1 20.4345 -0.111678 0.153025
8 1 20.2061 0.28577 -0.742114
9 1 20.9351 0.798464 -0.836452
10 1 21.3265 1.48436 -1.27686
11 1 22.0114 1.02637 -0.86296
12 1 22.0931 0.432007 -0.435857
13 1 21.7393 1.17093 0.284773
14 1 20.7772 0.891949 0.275912
15 1 21.0707 0.422251 1.20097
16 1 21.2392 -0.519773 0.803161
17 1 21.6784 -0.989042 -0.0329624
18 1 21.7748 -1.17093 -1.08768
19 1 21.674 -1.98233 -0.519809
20 1 21.1681 -2.0916 -1.43757
21 1 21.3291 -2.18233 -2.32596
22 1 22.2369 -1.63584 -2.20138
23 1 21.4797 -1.11323 -2.68363
24 1 22.2934 -0.681409 -2.71881
25 1 22.5082 -0.333252 -1.99554
26 1 22.7337 0.570412 -1.66073
27 1 23.0377 1.54698 -1.40018
28 1 23.742 0.800592 -1.48795
29 1 23.2667 0.654751 -0.7916
30 1 23.5892 0.027613 0.0746526
31 1 22.9843 0.526324 0.348561
32 1 22.5581 -0.321233 0.229962
33 1 22.9705 -1.07501 0.111225
34 1 23.0881 -0.626098 1.08961
35 1 22.4755 -0.142027 1.92428
36 1 21.6552 -0.597906 1.81518
37 1 21.0023 -0.971218 2.44917
38 1 20.3369 -0.444983 2.10646
39 1 20.7242 0.479177 2.19827
40 1 21.2589 0.98759 2.93202
41 1 22.2506 0.723777 2.79427
42 1 22.2894 1.42424 2.18132
43 1 21.6542 1.48336 1.44268
44 1 22.3554 0.908222 1.21106
45 1 23.1836 1.4396 1.41672
46 1 24.2911 0.876818 1.6569
47 1 23.6937 0.35366 1.12344
48 1 24.0186 -0.314329 1.95678
49 1 24.2277 -0.529218 0.969726
50 1 24.5173 -0.487988 -0.00217556
ITEM: TIMESTEP
16000
ITEM: NUMBER OF ATOMS
50
ITEM: BOX BOUNDS pp pp pp
-5.0000000000000000e+01 5.0000000000000000e+01
-5.0000000000000000e+01 5.0000000000000000e+01
-5.0000000000000000e+01 5.0000000000000000e+01
ITEM: ATOMS id type x y z
1 1 23.861 0.310365 -1.44672
2 1 23.0136 0.166387 -2.01481
3 1 22.1037 0.632368 -1.97692
4 1 21.8638 -0.265007 -2.53796
5 1 21.8622 -1.06711 -1.89194
6 1 22.8933 -0.781903 -1.73128
7 1 23.0458 -0.247811 -1.06021
8 1 23.1228 0.161784 -0.158833
9 1 23.2971 0.827654 -0.593086
10 1 22.5252 1.44537 -0.354703
11 1 21.9733 1.91342 -0.960539
12 1 21.5128 1.46822 -0.13576
13 1 20.6215 1.80563 -0.365339
14 1 21.2432 1.08933 -0.993922
15 1 22.133 0.570993 -0.742036
16 1 21.8488 -0.17618 -1.35633
17 1 21.9616 -0.632278 -0.538424
18 1 21.0964 -1.29184 -0.909821
19 1 21.0025 -2.05284 0.10387
20 1 21.7747 -1.62891 -0.0857727
21 1 22.327 -1.29904 0.764407
22 1 22.6669 -2.04009 0.42301
23 1 22.7567 -1.53153 -0.482016
24 1 23.0473 -0.852759 0.0720836
25 1 23.7914 -1.13832 0.723693
26 1 24.5496 -0.827397 1.4584
27 1 24.9936 -0.749441 0.590018
28 1 25.1458 -0.00943022 1.09924
29 1 24.0931 -0.0191779 0.684844
30 1 23.5354 0.929517 0.898831
31 1 23.1319 0.371227 1.59148
32 1 22.8785 -0.164245 0.789132
33 1 21.9528 0.138128 1.28715
34 1 21.7763 -0.388349 0.497622
35 1 21.984 0.422735 0.283959
36 1 20.9324 0.450926 0.672893
37 1 20.201 0.603612 1.11625
38 1 19.7125 -0.146238 0.806024
39 1 19.5591 0.413626 -0.00799639
40 1 20.0038 0.527353 -1.00852
41 1 20.2292 -0.235144 -0.65706
42 1 21.0495 0.10876 -0.393858
43 1 20.9025 -0.780978 0.0764094
44 1 20.3658 -1.08335 0.75351
45 1 21.0197 -1.0415 1.39689
46 1 20.9639 -0.0422935 1.70913
47 1 21.3227 0.947295 1.47935
48 1 20.8307 1.68769 0.944399
49 1 21.6806 1.97129 1.53642
50 1 22.3401 1.52949 0.64483
ITEM: TIMESTEP
17000
ITEM: NUMBER OF ATOMS
50
ITEM: BOX BOUNDS pp pp pp
-5.0000000000000000e+01 5.0000000000000000e+01
-5.0000000000000000e+01 5.0000000000000000e+01
-5.0000000000000000e+01 5.0000000000000000e+01
ITEM: ATOMS id type x y z
1 1 22.7471 -0.364629 0.637119
2 1 22.7396 -1.2325 0.582613
3 1 23.1024 -1.58733 1.1726
4 1 22.3806 -1.03913 1.5967
5 1 23.2214 -0.449303 1.5405
6 1 23.7401 -0.446487 0.58795
7 1 23.5225 0.475542 0.185263
8 1 23.0335 0.972082 0.798058