ITEM: TIMESTEP
0
ITEM: NUMBER OF ATOMS
50
ITEM: BOX BOUNDS pp pp pp
-5.0000000000000000e+01 5.0000000000000000e+01
-5.0000000000000000e+01 5.0000000000000000e+01
-5.0000000000000000e+01 5.0000000000000000e+01
ITEM: ATOMS id type x y z
1 1 -2.32352 0 0
2 1 -1.32615 0 0
3 1 -0.331426 0 0
4 1 0.663274 0 0
5 1 1.65803 0 0
6 1 2.65281 0 0
7 1 3.64756 0 0
8 1 4.64227 0 0
9 1 5.63699 0 0
10 1 6.6317 0 0
11 1 7.62643 0 0
12 1 8.62116 0 0
13 1 9.61589 0 0
14 1 10.6106 0 0
15 1 11.6053 0 0
16 1 12.6001 0 0
17 1 13.5948 0 0
18 1 14.5895 0 0
19 1 15.5843 0 0
20 1 16.579 0 0
21 1 17.5737 0 0
22 1 18.5684 0 0
23 1 19.5632 0 0
24 1 20.5579 0 0
25 1 21.5526 0 0
26 1 22.5474 0 0
27 1 23.5421 0 0
28 1 24.5368 0 0
29 1 25.5316 0 0
30 1 26.5263 0 0
31 1 27.521 0 0
32 1 28.5157 0 0
33 1 29.5105 0 0
34 1 30.5052 0 0
35 1 31.4999 0 0
36 1 32.4947 0 0
37 1 33.4894 0 0
38 1 34.4841 0 0
39 1 35.4788 0 0
40 1 36.4736 0 0
41 1 37.4683 0 0
42 1 38.463 0 0
43 1 39.4577 0 0
44 1 40.4524 0 0
45 1 41.4472 0 0
46 1 42.442 0 0
47 1 43.4367 0 0
48 1 44.4314 0 0
49 1 45.4261 0 0
50 1 46.4235 0 0
ITEM: TIMESTEP
1000
ITEM: NUMBER OF ATOMS
50
ITEM: BOX BOUNDS pp pp pp
-5.0000000000000000e+01 5.0000000000000000e+01
-5.0000000000000000e+01 5.0000000000000000e+01
-5.0000000000000000e+01 5.0000000000000000e+01
ITEM: ATOMS id type x y z
1 1 8.69132 0.235569 0.722594
2 1 8.91322 0.411279 -0.122276
3 1 8.87812 1.28806 0.392986
4 1 9.62401 1.6983 0.453423
5 1 9.67684 0.712488 0.584694
6 1 9.89428 0.604131 -0.368402
7 1 10.7738 0.550839 -0.62558
8 1 10.86 0.304437 0.240869
9 1 11.5086 -0.165833 0.690871
10 1 12.0831 0.493264 0.5494
11 1 11.828 0.440436 -0.468128
12 1 12.8328 0.790918 -0.461882
13 1 13.1191 -0.000851321 -1.1744
14 1 13.8093 -0.708088 -1.20511
15 1 13.5593 -0.529813 -0.265934
16 1 14.4484 -0.95844 -0.387247
17 1 15.127 -0.315491 -0.660014
18 1 15.9513 -0.0221588 -0.223411
19 1 16.7835 -0.299407 -0.614837
20 1 17.6604 -0.492429 -0.0773123
21 1 18.4131 -0.96159 -0.60777
22 1 18.8661 -0.451012 0.277351
23 1 19.4491 -1.0132 -0.394792
24 1 20.03 -0.888514 0.300675
25 1 20.5511 -1.16614 -0.384607
26 1 21.3519 -1.19708 0.250358
27 1 22.3927 -1.05842 -0.0782102
28 1 23.4229 -0.979734 -0.517047
29 1 24.1647 -1.4201 -0.994943
30 1 24.96 -0.989689 -1.25314
31 1 25.9286 -1.00802 -1.07802
32 1 26.8977 -0.719218 -1.08724
33 1 27.7925 -0.538843 -1.14755
34 1 28.7687 -0.192214 -1.29286
35 1 29.7987 -0.487569 -0.912693
36 1 29.9055 0.209665 -0.161467
37 1 30.8886 0.231597 -0.0299993
38 1 31.7703 0.435699 -0.38196
39 1 31.4708 1.16738 0.432002
40 1 32.4892 0.476241 0.613663
41 1 33.3427 0.262116 -0.00124976
42 1 33.8198 0.735492 0.672791
43 1 34.6882 0.339132 0.461586
44 1 34.5156 0.131061 1.43028
45 1 34.7717 1.23955 1.25785
46 1 35.4492 1.14032 0.468698
47 1 35.9144 1.03894 1.43632
48 1 35.5509 0.236189 1.20555
49 1 35.0831 0.580183 2.17742
50 1 34.0298 0.810568 2.3587
ITEM: TIMESTEP
2000
ITEM: NUMBER OF ATOMS
50
ITEM: BOX BOUNDS pp pp pp
-5.0000000000000000e+01 5.0000000000000000e+01
-5.0000000000000000e+01 5.0000000000000000e+01
-5.0000000000000000e+01 5.0000000000000000e+01
ITEM: ATOMS id type x y z
1 1 21.4253 1.52442 1.73872
2 1 21.3517 1.19601 0.685239
3 1 21.858 0.461464 0.597786
4 1 21.5268 0.903264 -0.388031
5 1 20.7237 1.10021 -0.847853
6 1 20.1046 1.77929 -0.65233
7 1 20.3904 1.50998 0.34584
8 1 20.3861 0.607145 -0.0521442
9 1 19.6913 -0.154262 0.584783
10 1 20.102 -0.516653 -0.092291
11 1 20.1631 -0.582277 -1.22289
12 1 19.8705 0.267142 -1.04229
13 1 20.2278 0.489593 -2.01542
14 1 20.9538 -0.0392354 -1.76083
15 1 21.407 0.175063 -1.08701
16 1 21.3069 -0.163715 -0.260618
17 1 20.8382 0.086541 0.805581
18 1 20.7624 -0.911405 0.84975
19 1 21.2701 -1.42559 0.454088
20 1 21.8608 -1.01078 0.0205939
21 1 21.6726 -1.70963 -0.966751
22 1 20.7692 -1.49812 -0.531086
23 1 20.8976 -1.15563 -1.44179
24 1 21.529 -1.09856 -2.18775
25 1 22.1689 -0.474459 -2.07056
26 1 22.458 0.197369 -1.28397
27 1 22.2224 -0.782275 -0.945102
28 1 23.1436 -0.62709 -1.48163
29 1 23.546 0.291082 -1.63105
30 1 23.3835 0.621822 -0.801502
31 1 22.7414 0.62335 -0.136461
32 1 22.4396 -0.0697429 -0.0416562
33 1 23.187 -0.432701 -0.180496
34 1 23.9682 -0.586663 -0.825393
35 1 24.4299 -0.409945 0.160173
36 1 23.9329 -1.26653 -0.0253076
37 1 24.6301 -1.8458 0.39827
38 1 24.934 -1.176 0.706175
39 1 24.2023 -0.845842 1.17443
40 1 23.2528 -1.09985 0.967654
41 1 23.5386 -0.0843303 0.715755
42 1 22.7282 0.23084 0.957145
43 1 22.7768 -0.0104177 2.08854
44 1 21.8546 -0.125177 1.55315
45 1 21.8898 0.690163 2.06609
46 1 22.9738 0.965258 1.84237
47 1 22.9845 1.77321 2.19782
48 1 22.4616 1.94835 1.43114
49 1 22.3448 1.42251 0.936264
50 1 23.218 1.2386 0.694874
ITEM: TIMESTEP
3000
ITEM: NUMBER OF ATOMS
50
ITEM: BOX BOUNDS pp pp pp
-5.0000000000000000e+01 5.0000000000000000e+01
-5.0000000000000000e+01 5.0000000000000000e+01
-5.0000000000000000e+01 5.0000000000000000e+01
ITEM: ATOMS id type x y z
1 1 19.6839 -0.17726 0.603146
2 1 20.271 -0.626332 -0.0827355
3 1 20.6783 0.349402 0.0280737
4 1 20.9414 1.38481 0.0279574
5 1 20.8966 1.69486 -0.856212
6 1 21.6084 1.65413 -0.694151
7 1 21.2615 0.634171 -0.935638
8 1 22.1982 0.53857 -1.01852
9 1 22.2138 0.924519 -1.95759
10 1 23.305 0.822255 -1.63809
11 1 23.1155 1.15511 -0.655662
12 1 23.5472 1.27705 -0.122825
13 1 22.7496 0.624404 0.271995
14 1 22.8904 0.127475 -0.250986
15 1 21.8952 -0.438565 -0.506163
16 1 22.2635 -0.502226 -1.53828
17 1 22.4163 -1.28216 -1.1786
18 1 23.1672 -1.87502 -0.805443
19 1 23.9415 -1.81196 -1.64491
20 1 24.272 -1.94867 -0.685445
21 1 25.1541 -1.44989 -0.565102
22 1 24.4428 -0.693096 -1.1203
23 1 24.4932 -0.148363 -1.80065
24 1 23.449 -0.287338 -1.43441
25 1 23.8671 0.338961 -0.757381
26 1 24.0944 0.16981 0.118041
27 1 23.8388 -0.568186 0.648094
28 1 23.3539 -0.76373 -0.423177
29 1 23.3257 -1.41904 0.440517
30 1 22.9061 -1.34838 1.42276
31 1 21.9038 -0.927035 0.952698
32 1 22.6738 -0.549099 0.547804
33 1 22.4049 -1.16625 -0.100529
34 1 21.2642 -1.32514 -0.173385
35 1 20.8168 -1.03959 -0.849788
36 1 21.1366 -0.49787 0.464324
37 1 20.7814 -1.20784 1.1909
38 1 19.8016 -0.703539 1.50235
39 1 20.5002 -0.707989 2.1465
40 1 20.8181 0.0142142 1.65182
41 1 21.561 0.844231 1.9175
42 1 22.2871 0.12664 1.35079
43 1 21.6807 0.434598 0.232565
44 1 20.9189 0.814113 0.921612
45 1 20.028 0.749835 1.26019
46 1 19.7993 0.998653 0.148203
47 1 19.267 1.41557 0.713585
48 1 20.1966 1.81286 1.01714
49 1 21.0284 2.52834 1.33428
50 1 21.3899 2.02999 0.883108
ITEM: TIMESTEP
4000
ITEM: NUMBER OF ATOMS
50
ITEM: BOX BOUNDS pp pp pp
-5.0000000000000000e+01 5.0000000000000000e+01
-5.0000000000000000e+01 5.0000000000000000e+01
-5.0000000000000000e+01 5.0000000000000000e+01
ITEM: ATOMS id type x y z
1 1 22.8269 0.602763 -1.7908
2 1 23.2109 1.35817 -2.2672
3 1 22.6104 2.01161 -2.59725
4 1 22.1403 1.05087 -2.62045
5 1 22.073 1.49543 -1.78965
6 1 22.6803 2.24826 -1.62537
7 1 23.4042 1.69928 -1.22568
8 1 22.9258 2.20413 -0.414666
9 1 22.3365 3.11468 -0.539581
10 1 22.0946 2.62462 0.0342131
11 1 22.1424 1.62782 0.301401
12 1 22.5772 1.25968 -0.834562
13 1 23.158 1.16542 0.0246642
14 1 23.1156 0.327231 -0.418043
15 1 23.0131 0.471685 0.739708
16 1 22.9767 -0.474627 0.900907
17 1 21.9451 -0.842095 0.876791
18 1 21.9079 0.169146 0.345179
19 1 21.8633 0.0898934 1.62605
20 1 22.1695 -0.858561 2.08136
21 1 21.2803 -0.974624 1.71374
22 1 20.8557 -1.73689 1.96885
23 1 21.5951 -1.78562 2.80055
24 1 20.8148 -2.41287 2.71011
25 1 20.1093 -2.58307 1.74403
26 1 19.7771 -2.37081 0.75981
27 1 20.6224 -2.50491 0.744111
28 1 21.2854 -2.94195 0.200404
29 1 20.9979 -2.18689 -0.184605
30 1 21.5648 -2.02346 0.707281
31 1 21.8021 -2.07289 1.75081
32 1 22.3982 -1.78613 1.23746
33 1 22.3645 -2.81804 1.12819
34 1 23.2781 -2.83563 1.22881
35 1 23.4698 -1.79515 1.4268
36 1 24.1394 -2.43211 1.32775
37 1 23.5039 -2.13017 0.402736
38 1 22.558 -1.70708 0.15935
39 1 22.8885 -0.828814 -0.297862
40 1 22.0928 -0.758242 -0.308247
41 1 21.6795 -0.0719188 -0.708007
42 1 21.7875 0.543442 -0.921762
43 1 21.1247 0.567618 -0.264316
44 1 21.2394 1.39193 -1.09041
45 1 20.8001 1.91301 -2.03255
46 1 21.5779 2.33209 -1.50772
47 1 21.707 2.51929 -2.39877
48 1 21.2056 3.35554 -2.05926
49 1 21.3691 3.36209 -0.988009
50 1 21.4397 3.42686 -0.0563132
ITEM: TIMESTEP
5000
ITEM: NUMBER OF ATOMS
50
ITEM: BOX BOUNDS pp pp pp
-5.0000000000000000e+01 5.0000000000000000e+01
-5.0000000000000000e+01 5.0000000000000000e+01
-5.0000000000000000e+01 5.0000000000000000e+01
ITEM: ATOMS id type x y z
1 1 22.6714 0.589428 2.14665
2 1 22.9048 -0.183704 1.7947
3 1 23.1122 -0.935235 2.40771
4 1 23.572 -1.71305 2.10411
5 1 23.2387 -1.27511 1.09392
6 1 24.0216 -0.590809 1.83117
7 1 23.9468 0.0420948 2.6006
8 1 23.8463 0.620632 2.25799
9 1 23.3891 0.849609 1.2615
10 1 23.3951 1.06149 0.157112
11 1 22.5145 0.788855 0.129036
12 1 21.8071 0.489994 -0.647785
13 1 21.109 -0.00540984 -1.07498
14 1 20.3003 -0.262894 -1.6072
15 1 19.9 0.462033 -0.987901
16 1 20.5097 0.769554 -1.51871
17 1 21.4443 1.0982 -1.38206
18 1 21.355 0.83882 -2.31265
19 1 22.4743 0.894846 -2.13252
20 1 23.0388 0.160929 -2.45667
21 1 22.0026 -0.190434 -1.98518
22 1 21.3772 -0.549125 -1.92933
23 1 22.0161 -0.987525 -1.13377
24 1 22.3377 -1.52821 -0.726457
25 1 21.6857 -1.78442 0.0109987
26 1 22.0978 -1.16194 0.727957
27 1 22.4753 -0.487851 -0.22707
28 1 21.6485 -0.169923 0.204167
29 1 21.4608 -0.802462 -0.277892
30 1 21.108 -1.46295 -0.906572
31 1 20.5026 -1.75912 -0.305029
32 1 20.6047 -0.875133 0.327703
33 1 20.5242 -0.171643 0.427065
34 1 21.072 -0.32731 1.24319
35 1 20.7314 -0.316274 2.12352
36 1 21.8476 -0.501573 2.39638
37 1 21.8794 -0.658862 1.66249
38 1 21.7152 0.343181 1.72701
39 1 22.0487 0.21825 1.04703
40 1 22.6789 -0.278626 0.762255
41 1 23.5621 -0.690471 0.0498056
42 1 23.9322 -0.033666 -0.691974
43 1 23.149 -0.190428 -1.46285
44 1 22.9825 0.522316 -0.910525
45 1 22.9414 1.56956 -0.971427
46 1 22.2003 2.06531 -1.38409
47 1 21.4462 1.92684 -2.0233
48 1 20.9647 2.32969 -1.2746
49 1 20.553 1.35168 -0.504527
50 1 20.4031 0.900851 0.340974
ITEM: TIMESTEP
6000
ITEM: NUMBER OF ATOMS
50
ITEM: BOX BOUNDS pp pp pp
-5.0000000000000000e+01 5.0000000000000000e+01
-5.0000000000000000e+01 5.0000000000000000e+01
-5.0000000000000000e+01 5.0000000000000000e+01
ITEM: ATOMS id type x y z
1 1 20.1971 -0.191512 0.541711
2 1 19.0188 -0.366746 0.787225
3 1 19.1581 0.663366 1.05183
4 1 19.978 0.498322 1.42202
5 1 19.9577 1.32854 1.50314
6 1 20.8744 0.904804 1.9571
7 1 21.1198 1.72309 1.39268
8 1 21.9683 1.94 1.18615
9 1 22.4837 1.43419 0.548184
10 1 21.4933 0.981265 0.752374
11 1 20.4984 1.16847 0.626018
12 1 21.0909 1.33684 -0.141852
13 1 21.9178 0.795305 -0.251161
14 1 22.1123 -0.0263895 -0.54881
15 1 22.725 0.535725 -1.05603
16 1 23.0804 -0.484758 -0.963105
17 1 23.6303 -1.11816 -1.56095
18 1 24.2876 -1.35369 -0.88702
19 1 24.5146 -0.592809 -0.926838
20 1 23.886 -0.508946 -0.219751
21 1 24.5494 -1.17356 0.723011
22 1 23.4618 -1.29636 0.534534
23 1 23.042 -1.36332 -0.253057
24 1 22.5996 -0.847526 0.130865
25 1 21.6914 -1.24799 0.00135025
26 1 20.7841 -1.21644 -0.193894
27 1 21.1795 -0.221431 -0.333889
28 1 20.9795 0.697777 -0.912158
29 1 20.6689 0.433173 -1.76589
30 1 21.4663 -0.0670199 -1.44724
31 1 20.6475 -0.650426 -1.59277
32 1 21.3584 -1.02804 -2.28318
33 1 21.6268 -1.12404 -1.38772
34 1 22.4867 -1.68919 -1.24893
35 1 21.7455 -1.9286 -0.76738
36 1 22.1516 -2.38842 0.000719826
37 1 21.3343 -1.96882 0.683938
38 1 21.8274 -1.28633 1.34676
39 1 20.9669 -1.05425 0.890626
40 1 20.5118 -1.0128 1.43437
41 1 21.1706 -0.0280347 1.49288
42 1 21.6173 -0.202264 0.729917
43 1 22.4608 0.258292 0.602703
44 1 23.0838 0.300777 -0.0780087
45 1 23.8728 0.380712 -0.706814
46 1 24.3096 0.984556 -0.14006
47 1 24.5144 2.08874 -0.670078
48 1 24.7835 2.69936 0.250595
49 1 23.8255 2.26932 0.13152
50 1 23.7904 3.01525 -0.385622
ITEM: TIMESTEP
7000
ITEM: NUMBER OF ATOMS
50
ITEM: BOX BOUNDS pp pp pp
-5.0000000000000000e+01 5.0000000000000000e+01
-5.0000000000000000e+01 5.0000000000000000e+01
-5.0000000000000000e+01 5.0000000000000000e+01
ITEM: ATOMS id type x y z
1 1 22.8987 -0.736424 -3.4204
2 1 23.3118 -0.666289 -2.65672
3 1 22.2719 -0.738208 -2.59104
4 1 21.5523 -0.204775 -2.15939
5 1 21.3649 0.247263 -1.36311
6 1 20.4757 0.834905 -1.94227
7 1 20.3173 1.42119 -1.07285
8 1 20.9372 1.00258 -0.769748
9 1 21.6207 1.64764 -1.15908
10 1 22.4233 1.85178 -0.604937
11 1 21.8799 1.37489 -0.0432843
12 1 22.617 1.60907 0.51716
13 1 23.1296 1.18152 1.10221
14 1 24.0268 1.1019 0.394018
15 1 24.0957 0.480929 -0.176539
16 1 23.2804 0.447885 0.120796
17 1 23.5639 -0.37859 0.427777
18 1 23.2283 -1.0672 1.03551
19 1 22.2684 -1.52846 1.24084
20 1 22.6283 -1.19496 2.49191
21 1 22.3262 -0.597256 1.79798
22 1 21.5664 -1.00142 1.9205
23 1 20.9204 -0.613144 1.5017
24 1 21.2525 -1.22526 0.854859
25 1 21.7064 -0.663228 0.441568
26 1 22.568 -0.348655 0.683541
27 1 22.2512 0.38543 0.160209
28 1 22.6166 0.722955 -0.76667
29 1 23.4294 0.000859942 -1.46442
30 1 23.1029 -0.675593 -1.50779
31 1 23.8598 -0.816777 -0.790943
32 1 23.4954 -1.53918 -0.0215669
33 1 22.4168 -1.61769 0.0894146
34 1 22.857 -0.641952 -0.435587
35 1 21.8547 -0.210281 -0.579781
36 1 21.7306 -1.27491 -0.666219
37 1 21.7361 -0.941493 -1.52686
38 1 20.6415 -0.551813 -1.62577
39 1 19.7997 0.395809 -1.2325
40 1 20.4722 -0.0282716 -0.743872
41 1 20.9554 -0.576284 -0.217413
42 1 21.2542 0.245307 0.342446
43 1 21.5746 0.0922564 1.1802
44 1 22.1766 0.664692 1.16884
45 1 21.6973 1.5027 1.58637
46 1 20.8314 1.42259 0.97979
47 1 20.5929 0.617946 1.55195
48 1 21.0096 0.801327 2.61858
49 1 21.5195 -0.00219729 2.40417
50 1 22.3928 -0.213128 2.92643
ITEM: TIMESTEP
8000
ITEM: NUMBER OF ATOMS
50
ITEM: BOX BOUNDS pp pp pp
-5.0000000000000000e+01 5.0000000000000000e+01
-5.0000000000000000e+01 5.0000000000000000e+01
-5.0000000000000000e+01 5.0000000000000000e+01
ITEM: ATOMS id type x y z
1 1 24.5221 0.714815 0.761286
2 1 24.9054 -0.229698 0.860109
3 1 24.9188 -0.1529 -0.175137
4 1 24.0373 0.376285 -0.281701
5 1 23.7542 1.05829 -1.07841
6 1 23.6149 0.23686 -1.38767
7 1 24.0728 -0.391959 -1.12067
8 1 23.1298 -0.419228 -0.812325
9 1 22.0785 -0.737954 -0.728452
10 1 22.4213 -0.256553 0.17037
11 1 22.3242 0.708372 0.624665
12 1 22.1256 1.42786 1.41803
13 1 21.2941 1.77632 2.02861
14 1 20.9529 0.890084 2.51492
15 1 21.647 0.631359 1.74639
16 1 21.1625 1.16798 1.05654
17 1 20.1939 0.867063 0.723401
18 1 19.5351 0.259154 0.902309
19 1 19.9096 0.38951 1.79576
20 1 20.6331 0.0813211 1.3604
21 1 21.1755 -0.48222 1.74678
22 1 20.9131 -1.43839 1.28178
23 1 20.1092 -0.907882 1.65774
24 1 19.7513 -0.704069 0.927485
25 1 20.355 -1.15201 0.0351877
26 1 21.319 -0.839541 0.17693
27 1 22.0905 -0.415811 1.1323
28 1 23.0763 -0.193765 1.47874
29 1 24.0498 -0.506798 1.43018
30 1 23.7159 -0.783674 0.447494
31 1 24.1735 -1.21339 -0.473444
32 1 23.7129 -2.11019 -0.589849
33 1 23.5458 -1.40456 -1.28092
34 1 23.1709 -1.88916 -1.859
35 1 23.5674 -1.20674 -2.50215
36 1 23.4278 -0.669315 -2.03289
37 1 22.5629 -0.404573 -1.81546
38 1 22.7574 0.51562 -2.39757
39 1 22.9172 1.09469 -1.82376
40 1 21.8421 0.438084 -1.68386
41 1 22.4537 0.423301 -0.914358
42 1 21.6815 0.242562 -0.410036
43 1 20.9935 -0.207569 -1.01802
44 1 20.7099 0.344513 -0.540622
45 1 21.0768 1.01749 -0.890899
46 1 21.5163 1.224 0.133136
47 1 20.4463 1.47906 -0.0477707
48 1 19.3321 1.43188 -0.0481662
49 1 19.0948 0.330505 -0.0692929
50 1 19.7286 -0.409033 -0.428097
ITEM: TIMESTEP
9000
ITEM: NUMBER OF ATOMS
50
ITEM: BOX BOUNDS pp pp pp
-5.0000000000000000e+01 5.0000000000000000e+01
-5.0000000000000000e+01 5.0000000000000000e+01
-5.0000000000000000e+01 5.0000000000000000e+01
ITEM: ATOMS id type x y z
1 1 21.6672 -0.827632 2.58731
2 1 22.2262 -0.844055 1.87964
3 1 22.8006 0.00816667 1.46686
4 1 23.5846 0.512433 1.86388
5 1 23.3277 1.21776 1.15197
6 1 22.5246 1.1408 1.98051
7 1 21.7532 0.534749 2.75063
8 1 21.8156 0.235033 1.83155
9 1 21.2093 -0.431655 1.35936
10 1 20.7513 0.0365315 2.22201
11 1 19.8846 0.645145 1.68993
12 1 20.5655 1.30908 1.67669
13 1 21.1064 1.47697 0.796453
14 1 21.7207 0.945937 0.893643
15 1 22.2262 1.52795 0.941781
16 1 21.8348 2.48854 0.566777
17 1 21.7913 2.06728 -0.302496
18 1 21.6167 1.73438 -1.15779
19 1 21.8741 0.724287 -1.37168
20 1 21.0252 0.337555 -1.08053
21 1 21.1939 0.751806 -0.313766
22 1 20.6057 0.430184 0.732463
23 1 19.8194 0.924882 0.563738
24 1 20.1484 0.83633 -0.286257
25 1 19.8469 -0.0244219 0.145706
26 1 20.5784 -0.290231 -0.44147
27 1 21.2884 -0.677687 0.220603
28 1 21.4 -1.66681 -0.506275
29 1 22.3644 -2.07794 -0.927275
30 1 22.9351 -1.68508 0.0132998
31 1 22.4232 -1.16035 -0.344611
32 1 22.3961 -0.92373 0.690098
33 1 23.0457 -0.412882 0.22978
34 1 22.9127 -0.200921 -0.622971
35 1 21.9789 0.00491931 -0.632608
36 1 21.8899 0.147675 0.206707
37 1 22.3172 0.984383 -0.0628533
38 1 22.6778 0.979835 -0.709353
39 1 23.4581 0.271891 -1.28795
40 1 23.7258 -0.436354 -1.35488
41 1 23.4701 -0.404074 -2.16822
42 1 22.519 -0.262562 -2.50036
43 1 21.6986 -0.0969663 -2.1875
44 1 22.2837 -0.793701 -1.58057
45 1 22.4559 -1.30961 -2.44459
46 1 23.3132 -1.70934 -2.73741
47 1 23.3168 -1.37771 -1.69069
48 1 23.389 -2.02508 -1.03085
49 1 23.561 -1.11773 -0.632878
50 1 24.1806 -1.51797 -0.0855444
ITEM: TIMESTEP
10000
ITEM: NUMBER OF ATOMS
50
ITEM: BOX BOUNDS pp pp pp
-5.0000000000000000e+01 5.0000000000000000e+01
-5.0000000000000000e+01 5.0000000000000000e+01
-5.0000000000000000e+01 5.0000000000000000e+01
ITEM: ATOMS id type x y z
1 1 20.5368 -0.870358 -0.629982
2 1 19.8149 -1.23462 -0.379184
3 1 20.5666 -1.02323 0.483515
4 1 21.1815 -0.500996 1.11924
5 1 21.0107 0.588916 0.826419
6 1 20.0795 0.790292 0.654777
7 1 20.1248 -0.0236115 -0.0206607
8 1 20.6443 0.713242 -0.431716
9 1 20.5983 0.16986 -1.0732
10 1 20.5348 0.928771 -1.82107
11 1 20.6291 1.56153 -0.948139
12 1 21.0261 2.2745 -0.204752
13 1 21.0242 1.70062 0.452319
14 1 21.6777 1.04655 0.078524
15 1 21.6157 1.35584 -0.471416
16 1 21.5018 1.31007 -1.46984
17 1 21.9599 2.06445 -1.29607
18 1 22.7898 1.8508 -0.636979
19 1 22.9904 1.35118 -1.43716
20 1 23.3569 1.094 -2.17292
21 1 22.3672 0.940569 -2.23594
22 1 21.4485 0.333369 -2.04403
23 1 21.3918 -0.682936 -2.17781
24 1 21.4371 -0.683531 -1.17984
25 1 21.8642 0.297574 -1.07346
26 1 22.6896 0.463589 -1.04384
27 1 23.5969 0.0187858 -1.45427
28 1 22.9017 -0.659554 -1.11821
29 1 22.2972 -1.21899 -1.56886
30 1 22.372 -1.39274 -0.549788
31 1 21.4638 -1.2194 -0.14576
32 1 22.0307 -0.999059 0.519265
33 1 22.2178 -0.330398 -0.237423
34 1 21.3308 -0.0796242 -0.161701
35 1 22.0536 0.239455 0.772949
36 1 22.9168 0.280825 0.269968
37 1 23.0348 0.198096 1.18862
38 1 22.6495 -0.0641081 2.03006
39 1 22.4462 -0.724205 2.65455
40 1 21.9431 -1.01125 1.94809
41 1 22.7267 -0.869578 1.44953
42 1 23.6317 -1.13823 1.7242
43 1 24.407 -1.11561 2.56816
44 1 23.7359 -0.616934 3.11252
45 1 23.5122 -0.0764051 2.41528
46 1 24.0054 -0.115119 1.49685
47 1 23.7634 -0.45523 0.779149
48 1 22.9952 -0.841717 0.29925
49 1 23.0139 -1.59626 0.285313
50 1 22.5914 -2.02918 0.855465
ITEM: TIMESTEP
11000
ITEM: NUMBER OF ATOMS
50
ITEM: BOX BOUNDS pp pp pp
-5.0000000000000000e+01 5.0000000000000000e+01
-5.0000000000000000e+01 5.0000000000000000e+01
-5.0000000000000000e+01 5.0000000000000000e+01
ITEM: ATOMS id type x y z
1 1 20.9053 -1.43421 1.01939
2 1 20.4997 -1.57376 0.374686
3 1 21.3087 -2.24634 -0.0375101
4 1 22.1951 -2.11003 -0.600206
5 1 21.6668 -1.42221 -1.3338
6 1 22.1605 -0.881372 -1.57488
7 1 22.7463 -0.201056 -1.58336
8 1 22.2256 0.584955 -1.67712
9 1 23.0038 0.613988 -2.19274
10 1 23.7066 0.685308 -1.36993
11 1 23.8542 1.43875 -1.54827
12 1 23.0798 2.27811 -2.01927
13 1 22.2903 1.62214 -2.10509
14 1 22.5251 1.49817 -1.02379
15 1 22.039 1.10767 -0.101376
16 1 21.9166 0.83047 1.05549
17 1 21.9508 0.192148 1.74359
18 1 22.4524 -0.127285 1.24552
19 1 23.0451 -0.591051 1.9641
20 1 23.5894 -0.24113 1.43398
21 1 23.1185 0.694388 1.67189
22 1 23.0152 0.893935 0.788534
23 1 23.0911 1.28412 -0.0921479
24 1 23.6064 0.627916 0.0265778
25 1 23.6209 -0.205735 0.267032
26 1 24.1119 -0.0498999 -0.564312
27 1 23.0541 -0.694746 -0.63975
28 1 22.697 0.316644 -0.674391
29 1 21.874 -0.395599 -0.713003
30 1 22.2631 -1.0297 -0.115827
31 1 22.2062 -1.56462 0.557378
32 1 23.0718 -1.02525 0.561897
33 1 22.5757 -0.120182 0.173643
34 1 21.6987 0.250255 0.280638
35 1 21.2213 0.370836 -0.529355
36 1 21.2821 -0.00237705 -1.38312
37 1 20.6258 -0.375014 -0.751686
38 1 21.2425 -0.999919 -0.23397
39 1 20.8006 -0.295191 0.498214
40 1 21.5311 -0.59576 1.0406
41 1 22.1537 -1.17899 1.44801
42 1 21.5178 -1.59419 1.89491
43 1 20.69 -1.2938 2.31195
44 1 21.3114 -0.515182 2.26831
45 1 20.8593 0.206661 1.6209
46 1 20.7323 1.04844 1.25677
47 1 20.7793 0.939 0.254187
48 1 21.1207 1.33201 -0.843901
49 1 20.1972 1.94517 -1.28628
50 1 19.2695 2.00349 -0.763114
ITEM: TIMESTEP
12000
ITEM: NUMBER OF ATOMS
50
ITEM: BOX BOUNDS pp pp pp
-5.0000000000000000e+01 5.0000000000000000e+01
-5.0000000000000000e+01 5.0000000000000000e+01
-5.0000000000000000e+01 5.0000000000000000e+01
ITEM: ATOMS id type x y z
1 1 22.9612 -1.25158 0.0160988
2 1 22.5662 -1.47851 0.78168
3 1 23.6147 -1.55611 1.02338
4 1 23.9721 -1.06166 0.347532
5 1 24.5418 -0.555131 0.792756
6 1 24.3896 0.276905 0.411389
7 1 23.2279 0.641951 0.422278
8 1 23.3559 -0.127651 0.106874
9 1 22.917 -0.522503 0.81851
10 1 22.2846 0.0156491 0.944331
11 1 22.1307 0.033734 0.242694
12 1 22.1145 0.988878 0.841676
13 1 21.6591 1.19193 -0.240896
14 1 21.1499 2.12804 -0.253074
15 1 21.5416 1.83895 0.607857
16 1 20.7253 1.19678 1.23728
17 1 20.938 0.328965 1.33777
18 1 21.2119 0.451865 0.328302
19 1 20.9193 -0.626221 0.397619
20 1 20.925 -0.936456 1.30004
21 1 21.8146 -0.794986 1.15959
22 1 21.4844 -0.211813 1.93929
23 1 22.5286 -0.340983 1.8849
24 1 23.0511 0.30735 2.28921
25 1 23.7826 -0.319472 2.36459
26 1 23.5515 -0.957837 1.90489
27 1 23.9439 -1.63055 2.04788
28 1 23.2284 -2.22383 1.89352
29 1 22.6393 -1.48969 1.9104
30 1 21.5997 -1.77831 1.63222
31 1 21.4305 -1.71621 0.56398
32 1 21.7777 -1.33391 -0.405309
33 1 22.3502 -0.539912 -0.834754
34 1 22.7341 0.305416 -1.32015
35 1 22.7421 0.818302 -1.98569
36 1 21.6865 1.0839 -1.53087
37 1 21.8338 0.168113 -1.75564
38 1 21.7861 0.280782 -2.77055
39 1 22.8246 -0.170061 -2.36867
40 1 22.0566 -0.813305 -2.34793
41 1 21.1608 -0.65317 -1.76062
42 1 21.2641 -0.356093 -0.669276
43 1 20.4527 0.419316 -0.751796
44 1 20.5541 0.902196 -1.57556
45 1 20.4884 0.201247 -2.09073
46 1 21.0451 1.12692 -2.5739
47 1 20.4148 1.86505 -2.70589
48 1 20.896 2.0647 -1.55281
49 1 20.6051 2.52904 -1.06504
50 1 19.6263 2.27997 -0.989379
ITEM: TIMESTEP
13000
ITEM: NUMBER OF ATOMS
50
ITEM: BOX BOUNDS pp pp pp
-5.0000000000000000e+01 5.0000000000000000e+01
-5.0000000000000000e+01 5.0000000000000000e+01
-5.0000000000000000e+01 5.0000000000000000e+01
ITEM: ATOMS id type x y z
1 1 21.484 0.778508 1.67042
2 1 20.7135 1.28862 2.00018
3 1 20.5892 2.24543 2.14664
4 1 20.7319 2.00961 1.2301
5 1 21.847 1.87031 1.53639
6 1 22.5004 1.01091 1.7957
7 1 23.1394 0.994351 0.831861
8 1 22.0339 0.98317 0.642154
9 1 21.8199 1.58078 0.22446
10 1 21.3278 0.881416 -0.273305
11 1 20.671 0.811266 0.266756
12 1 20.9146 0.141779 0.89363
13 1 20.138 0.630613 1.39126
14 1 19.2689 0.546971 0.713453
15 1 19.8077 1.70496 0.883222
16 1 19.6072 1.35457 -0.0948881
17 1 19.8436 0.604502 -0.534622
18 1 20.5278 0.133938 -1.00663
19 1 21.4986 0.0944332 -1.13471
20 1 22.1834 -0.348654 -0.694552
21 1 21.2122 -0.271832 -0.242394
22 1 20.4187 -0.419181 0.30601
23 1 19.4366 -0.307543 0.0766655
24 1 19.9106 -0.856995 -0.529709
25 1 20.5209 -1.21003 -0.391066
26 1 20.6776 -0.926947 -1.4044
27 1 21.5269 -0.946527 -1.32683
28 1 21.5537 -1.54889 -0.815235
29 1 21.9119 -1.26303 0.0641726
30 1 21.8893 -0.53852 0.733358
31 1 22.9451 -0.829701 0.77192
32 1 22.6078 0.133843 1.18251
33 1 22.5286 0.314991 -0.00663206
34 1 22.8939 0.997038 -0.591922
35 1 23.6231 0.335921 0.178176
36 1 23.7202 -0.00822854 1.16807
37 1 24.5416 -0.19571 0.583873
38 1 23.901 -1.11392 0.768544
39 1 24.0366 -1.60469 -0.322911
40 1 23.54 -0.703123 -0.127006
41 1 22.9557 -1.28552 -0.628214
42 1 22.6727 -0.967699 -1.53173
43 1 23.8603 -0.944777 -1.11363
44 1 23.5307 -1.92095 -1.30419
45 1 24.5242 -1.97597 -1.31511
46 1 24.908 -1.10553 -0.817761
47 1 24.8591 -0.616502 -1.38925
48 1 23.9081 -0.124093 -2.02276
49 1 23.0795 0.412223 -1.48523
50 1 24.1574 0.174385 -0.954838
ITEM: TIMESTEP
14000
ITEM: NUMBER OF ATOMS
50
ITEM: BOX BOUNDS pp pp pp
-5.0000000000000000e+01 5.0000000000000000e+01
-5.0000000000000000e+01 5.0000000000000000e+01
-5.0000000000000000e+01 5.0000000000000000e+01
ITEM: ATOMS id type x y z
1 1 19.5507 1.5511 1.66801
2 1 20.5772 1.12911 1.50487
3 1 21.0596 1.65256 1.20849
4 1 20.256 1.33286 0.494549
5 1 19.4533 0.96858 0.472891
6 1 20.1438 0.312831 0.967797
7 1 20.7896 0.457977 0.47878
8 1 21.3824 1.0914 0.176602
9 1 21.3875 2.07606 0.139193
10 1 20.7341 1.71337 -0.417827
11 1 20.6785 0.81113 -0.583095
12 1 21.4026 -0.0173268 -0.562473
13 1 20.9973 0.133652 -1.5589
14 1 22.0256 0.66077 -1.6391
15 1 22.6696 1.10931 -2.10377
16 1 21.6287 1.65093 -2.4255
17 1 21.6181 1.58064 -1.32846
18 1 21.8673 0.954449 -0.680709
19 1 22.305 1.64354 -0.34747
20 1 23.0663 1.3212 -0.710275
21 1 22.849 0.494505 -1.09217
22 1 22.6635 -0.276629 -1.83109
23 1 23.191 -1.09581 -1.76319
24 1 23.9723 -0.276894 -1.48836
25 1 24.5169 -0.907671 -0.982234
26 1 24.5533 -1.11103 -0.128311
27 1 23.6193 -1.54932 -0.437609
28 1 22.6567 -1.44264 -0.735196
29 1 22.1847 -0.755352 -0.227247
30 1 22.1236 -0.622393 -1.02082
31 1 21.6024 -1.2244 -1.10892
32 1 20.6998 -0.788195 -0.830844
33 1 20.8835 -0.658408 0.1018
34 1 20.7854 -1.17382 0.825042
35 1 21.4008 -0.32438 1.1528
36 1 21.6789 0.811036 1.30458
37 1 21.8411 0.326682 2.02567
38 1 22.6171 -0.439885 1.9864
39 1 21.9893 -1.56053 2.12648
40 1 21.6063 -2.38242 1.78797
41 1 22.3578 -2.47617 1.87084
42 1 22.9102 -1.55313 1.64937
43 1 23.0617 -1.5591 0.642321
44 1 22.6376 -0.972482 0.686894
45 1 23.5113 -0.721391 1.2332
46 1 24.2084 -0.451366 0.574524
47 1 23.9745 -0.00935966 -0.366705
48 1 23.1535 -0.503711 -0.881019
49 1 22.9211 0.0734798 -0.119298
50 1 22.7362 0.996641 0.291535
ITEM: TIMESTEP
15000
ITEM: NUMBER OF ATOMS
50
ITEM: BOX BOUNDS pp pp pp
-5.0000000000000000e+01 5.0000000000000000e+01
-5.0000000000000000e+01 5.0000000000000000e+01
-5.0000000000000000e+01 5.0000000000000000e+01
ITEM: ATOMS id type x y z
1 1 20.4381 0.0856555 0.0451675
2 1 20.2732 0.311443 -0.731619
3 1 20.7171 0.823787 -1.35204
4 1 21.6894 1.17198 -1.06069
5 1 21.6838 0.532001 -1.67831
6 1 21.851 0.44629 -2.63468
7 1 22.2475 1.34945 -2.26428
8 1 22.6178 1.25626 -1.61799
9 1 22.6915 0.297134 -1.95214
10 1 23.2297 -0.338602 -1.54777
11 1 23.0828 0.387683 -0.831696
12 1 23.1804 1.25178 -0.228355
13 1 22.4467 0.638047 -0.109283
14 1 23.2358 0.280317 0.2745
15 1 23.9676 0.960743 0.600931
16 1 23.3501 1.69734 0.793817
17 1 22.5819 1.58344 0.650412
18 1 21.9575 1.69031 -0.131648
19 1 21.4995 0.992595 0.328476
20 1 22.022 0.53664 0.938668
21 1 22.5614 0.323864 1.18726
22 1 23.0179 -0.142995 1.83375
23 1 23.817 -0.836848 1.57416
24 1 23.9284 0.0258679 2.37439
25 1 23.6745 0.243479 1.17865
26 1 24.5149 -0.368518 0.92982
27 1 24.2231 0.0442791 -0.0672758
28 1 23.8462 -0.973822 0.237998
29 1 23.3687 -0.600596 -0.583335
30 1 23.1077 -1.38842 -1.4586
31 1 22.3181 -0.942677 -2.01227
32 1 21.9783 -1.18952 -1.3224
33 1 21.3453 -0.566457 -1.59812
34 1 21.351 -0.0544224 -0.672157
35 1 21.0957 -0.970334 -0.484349
36 1 20.3425 -0.788572 -0.603286
37 1 19.5472 -1.05137 -0.807803
38 1 19.4665 -1.04856 0.0880734
39 1 20.1957 -0.970304 0.494964
40 1 20.7803 -1.66319 0.590278
41 1 20.5208 -1.13777 1.41973
42 1 20.307 -0.0557643 1.14728
43 1 20.8932 0.613219 1.32608
44 1 21.4152 0.696154 2.15106
45 1 20.9369 0.034912 2.4045
46 1 21.3461 -0.53241 1.5877
47 1 21.6365 -1.11768 1.02411
48 1 21.4074 -0.44227 0.516972
49 1 22.4819 -0.612904 0.577863
50 1 22.3112 -0.480668 -0.526508
ITEM: TIMESTEP
16000
ITEM: NUMBER OF ATOMS
50
ITEM: BOX BOUNDS pp pp pp
-5.0000000000000000e+01 5.0000000000000000e+01
-5.0000000000000000e+01 5.0000000000000000e+01
-5.0000000000000000e+01 5.0000000000000000e+01
ITEM: ATOMS id type x y z
1 1 22.6023 -0.379129 -3.54976
2 1 21.9301 0.169971 -2.87494
3 1 21.5763 0.709314 -2.39235
4 1 22.1088 0.69376 -1.74479
5 1 22.5185 1.43113 -1.77624
6 1 22.681 2.0054 -0.9963
7 1 23.2063 1.14526 -0.61228
8 1 22.3794 0.653523 -0.746956
9 1 22.8345 0.245926 0.0214296
10 1 22.6603 1.26219 0.440789
11 1 22.6796 1.31843 1.26929
12 1 22.9465 0.0761596 1.3786
13 1 22.7507 -0.364506 2.32838
14 1 22.8756 0.664042 2.31464
15 1 21.9929 0.396899 2.30515
16 1 21.8402 0.529851 1.39777
17 1 21.7647 -0.355286 1.66321
18 1 22.096 -0.530723 0.786633
19 1 21.7702 -0.0100317 0.0711637
20 1 21.6924 1.03831 0.202942
21 1 21.0722 1.81493 0.703701
22 1 21.2347 2.08866 1.70581
23 1 20.316 1.99938 1.36906
24 1 20.9149 1.04833 1.4592
25 1 20.582 0.483425 2.10797
26 1 20.7233 -0.41164 2.06086
27 1 19.8503 -0.656257 2.2189
28 1 20.4746 -1.33004 1.60536
29 1 21.5834 -1.475 1.26603
30 1 22.3451 -1.47036 1.45973
31 1 22.9163 -1.13859 0.792974
32 1 22.7545 -0.911351 -0.179276
33 1 22.8291 -0.175451 -0.924453
34 1 23.0916 0.396092 -1.83539
35 1 23.7177 -0.156721 -1.53126
36 1 23.801 -0.784141 -0.611039
37 1 24.1315 -1.85402 -0.490227
38 1 23.956 -1.46039 -1.43929
39 1 22.9509 -1.27049 -1.17628
40 1 23.048 -0.77538 -1.9066
41 1 22.2975 -1.04815 -2.53424
42 1 22.0683 -0.317335 -1.76693
43 1 21.2345 -0.722525 -1.50869
44 1 21.4785 0.180401 -1.07514
45 1 20.6839 -0.2075 -0.400986
46 1 20.7649 0.633279 -0.0497808
47 1 20.9238 0.197434 0.702539
48 1 21.0775 -0.73002 0.767706
49 1 21.4571 -1.54888 0.20466
50 1 21.3148 -1.09818 -0.481305
ITEM: TIMESTEP
17000
ITEM: NUMBER OF ATOMS
50
ITEM: BOX BOUNDS pp pp pp
-5.0000000000000000e+01 5.0000000000000000e+01
-5.0000000000000000e+01 5.0000000000000000e+01
-5.0000000000000000e+01 5.0000000000000000e+01
ITEM: ATOMS id type x y z
1 1 23.6645 0.319225 -1.9513
2 1 23.0761 1.06782 -2.019
3 1 22.9517 1.98759 -1.61949
4 1 22.1521 2.48574 -1.23431
5 1 21.6795 1.85287 -0.702531
6 1 22.3415 1.71788 -0.152639
7 1 22.9139 1.17379 -0.426756
8 1 23.7024 0.57739 -0.141768