ITEM: TIMESTEP
0
ITEM: NUMBER OF ATOMS
50
ITEM: BOX BOUNDS pp pp pp
-5.0000000000000000e+01 5.0000000000000000e+01
-5.0000000000000000e+01 5.0000000000000000e+01
-5.0000000000000000e+01 5.0000000000000000e+01
ITEM: ATOMS id type x y z
1 1 -2.33286 0 0
2 1 -1.33529 0 0
3 1 -0.340176 0 0
4 1 0.654922 0 0
5 1 1.65006 0 0
6 1 2.64522 0 0
7 1 3.64035 0 0
8 1 4.63545 0 0
9 1 5.63056 0 0
10 1 6.62567 0 0
11 1 7.62079 0 0
12 1 8.6159 0 0
13 1 9.61102 0 0
14 1 10.6061 0 0
15 1 11.6013 0 0
16 1 12.5964 0 0
17 1 13.5915 0 0
18 1 14.5866 0 0
19 1 15.5817 0 0
20 1 16.5768 0 0
21 1 17.572 0 0
22 1 18.5671 0 0
23 1 19.5622 0 0
24 1 20.5573 0 0
25 1 21.5524 0 0
26 1 22.5476 0 0
27 1 23.5427 0 0
28 1 24.5378 0 0
29 1 25.5329 0 0
30 1 26.528 0 0
31 1 27.5232 0 0
32 1 28.5183 0 0
33 1 29.5134 0 0
34 1 30.5085 0 0
35 1 31.5036 0 0
36 1 32.4987 0 0
37 1 33.4939 0 0
38 1 34.489 0 0
39 1 35.4841 0 0
40 1 36.4792 0 0
41 1 37.4743 0 0
42 1 38.4694 0 0
43 1 39.4645 0 0
44 1 40.4597 0 0
45 1 41.4548 0 0
46 1 42.4499 0 0
47 1 43.4451 0 0
48 1 44.4402 0 0
49 1 45.4353 0 0
50 1 46.4329 0 0
ITEM: TIMESTEP
1000
ITEM: NUMBER OF ATOMS
50
ITEM: BOX BOUNDS pp pp pp
-5.0000000000000000e+01 5.0000000000000000e+01
-5.0000000000000000e+01 5.0000000000000000e+01
-5.0000000000000000e+01 5.0000000000000000e+01
ITEM: ATOMS id type x y z
1 1 8.8052 0.427683 -0.377919
2 1 9.32122 1.26799 -0.360314
3 1 9.20161 0.96327 0.724034
4 1 9.95027 0.494683 0.840348
5 1 10.2898 1.4682 0.845644
6 1 10.9379 1.14375 0.535051
7 1 10.3541 0.812663 -0.36667
8 1 9.93926 0.0182646 -0.244091
9 1 10.831 -0.348272 -0.261504
10 1 11.5202 0.0779316 0.486147
11 1 11.4033 0.719584 -0.360197
12 1 11.9974 -0.0443828 -0.582032
13 1 12.9629 -0.256089 -0.975293
14 1 14.0019 -0.0684429 -0.752182
15 1 13.5103 -0.752681 -0.228154
16 1 14.5368 -0.90414 -0.367973
17 1 15.0985 -0.191009 -0.659081
18 1 15.9068 0.0340423 -0.245635
19 1 16.8774 -0.224828 -0.51066
20 1 17.7209 -0.480349 0.0268368
21 1 18.3344 -0.927321 -0.751692
22 1 18.8298 -0.614069 0.102683
23 1 19.5112 -1.00963 -0.426871
24 1 19.9822 -0.93551 0.426965
25 1 20.5904 -0.984252 -0.261909
26 1 21.5118 -1.41299 0.119829
27 1 22.4158 -0.92517 0.000183067
28 1 23.2474 -1.19074 -0.557109
29 1 24.1926 -1.34419 -0.941545
30 1 25.1341 -0.980682 -1.31816
31 1 26.0381 -1.02898 -0.996822
32 1 26.9444 -0.643446 -0.999914
33 1 27.9395 -0.362267 -1.05442
34 1 28.8821 -0.237178 -1.31789
35 1 29.7864 -0.252694 -0.92059
36 1 29.0354 0.0947469 -0.297925
37 1 29.905 0.126704 0.066588
38 1 30.753 0.345819 -0.196535
39 1 31.6579 0.648963 -0.396379
40 1 32.4178 0.386938 0.291617
41 1 33.4315 0.778341 0.386514
42 1 33.9086 0.79921 1.20877
43 1 34.5551 0.761113 0.401823
44 1 35.4437 1.0406 0.141631
45 1 35.2878 0.577255 1.07092
46 1 35.98 0.0150431 0.998415
47 1 36.3822 0.873972 1.74832
48 1 35.5873 0.325163 2.19174
49 1 35.1712 1.33851 2.08465
50 1 34.4765 0.578879 2.03075
ITEM: TIMESTEP
2000
ITEM: NUMBER OF ATOMS
50
ITEM: BOX BOUNDS pp pp pp
-5.0000000000000000e+01 5.0000000000000000e+01
-5.0000000000000000e+01 5.0000000000000000e+01
-5.0000000000000000e+01 5.0000000000000000e+01
ITEM: ATOMS id type x y z
1 1 18.4967 0.0774743 0.058546
2 1 19.0392 0.403434 0.817029
3 1 19.7732 0.622925 0.230664
4 1 20.8176 0.764667 0.271006
5 1 20.322 1.27514 0.752479
6 1 21.1526 1.47728 1.28995
7 1 21.2978 1.87817 0.383612
8 1 21.6674 1.60701 -0.27974
9 1 22.0115 1.09427 0.664718
10 1 22.6357 0.291632 0.0503031
11 1 22.4104 0.45891 -1.00781
12 1 21.4201 0.559338 -1.04011
13 1 20.3613 0.546512 -0.816178
14 1 20.1043 -0.582398 -0.404603
15 1 19.0706 -0.667244 -0.627793
16 1 18.4436 -1.26865 -0.642329
17 1 18.937 -1.52953 -1.50269
18 1 19.6897 -1.15102 -1.91498
19 1 19.9029 -0.269353 -1.50249
20 1 20.8365 -0.323896 -1.11191
21 1 21.1569 -0.237508 -0.294137
22 1 21.1571 -1.20833 -0.670591
23 1 21.1668 -1.15622 -1.77397
24 1 22.0536 -1.24567 -1.99673
25 1 21.5063 -0.905442 -2.94577
26 1 20.5778 -0.325054 -2.58137
27 1 21.366 -0.13081 -2.24092
28 1 22.2471 0.271851 -2.02149
29 1 21.901 -0.422137 -1.20127
30 1 22.631 -0.640656 -0.644689
31 1 22.8891 -1.0969 0.0894241
32 1 23.74 -1.5986 0.153061
33 1 23.4108 -1.67636 -0.688601
34 1 24.1757 -1.14466 -0.711811
35 1 23.6074 -0.391075 -0.191017
36 1 23.8545 -0.770409 0.596255
37 1 24.8189 -1.23579 0.719516
38 1 25.1031 -0.832438 1.61181
39 1 25.2983 -0.185015 0.8351
40 1 24.4602 0.245686 0.563448
41 1 24.2988 -0.167349 1.41923
42 1 23.3275 0.276426 0.908307
43 1 23.8034 1.05379 1.07687
44 1 24.288 0.688132 1.94199
45 1 24.0163 1.32987 3.01637
46 1 24.1324 1.82345 2.01664
47 1 23.5518 2.26618 2.53037
48 1 23.161 1.33986 2.34856
49 1 23.3792 0.339133 2.6919
50 1 23.0304 0.471378 1.77584
ITEM: TIMESTEP
3000
ITEM: NUMBER OF ATOMS
50
ITEM: BOX BOUNDS pp pp pp
-5.0000000000000000e+01 5.0000000000000000e+01
-5.0000000000000000e+01 5.0000000000000000e+01
-5.0000000000000000e+01 5.0000000000000000e+01
ITEM: ATOMS id type x y z
1 1 21.5878 0.957949 0.113084
2 1 21.9297 1.17369 -0.883828
3 1 21.7484 0.331285 -1.26853
4 1 20.8872 0.600031 -0.51116
5 1 20.5516 1.06361 0.476944
6 1 21.0088 0.24462 0.691208
7 1 21.6028 0.430597 1.0579
8 1 22.1968 1.28418 1.29784
9 1 22.5318 1.37891 0.315348
10 1 22.7972 0.47539 0.678293
11 1 22.3255 0.303812 -0.0573767
12 1 21.5506 -0.317239 -0.360222
13 1 21.8985 -0.909502 -0.907355
14 1 22.5153 -1.19513 -1.63617
15 1 22.359 -0.409071 -2.11235
16 1 22.67 0.622781 -1.98489
17 1 23.6107 0.658251 -1.24945
18 1 24.0663 0.951801 -0.368651
19 1 23.7106 0.228237 0.182815
20 1 23.2813 0.126914 -0.496412
21 1 23.3178 -0.594761 -1.21602
22 1 23.4074 -0.122908 -2.02961
23 1 23.7816 -1.0604 -2.33515
24 1 23.7139 -1.66181 -3.01856
25 1 22.9649 -2.14625 -2.94152
26 1 22.8915 -3.12869 -2.70921
27 1 22.6975 -2.41573 -1.89873
28 1 23.438 -1.72708 -1.39825
29 1 24.3624 -1.5205 -1.30219
30 1 24.751 -0.670359 -1.35157
31 1 24.5749 0.021651 -0.85124
32 1 24.1289 -0.753634 -0.408938
33 1 23.0732 -0.693577 -0.0194613
34 1 22.7734 -0.529248 1.10061
35 1 22.7423 -0.800636 2.09528
36 1 22.2556 0.488244 2.26122
37 1 21.6803 -0.331366 1.93957
38 1 21.4944 -0.654533 0.970029
39 1 20.3204 -0.728268 0.716848
40 1 20.3278 -0.327268 1.47377
41 1 20.2036 0.353092 2.38806
42 1 19.3226 -0.101514 2.08656
43 1 19.2114 0.650778 1.29174
44 1 20.1667 0.841222 1.38951
45 1 20.8072 1.75927 1.50872
46 1 20.7732 1.23667 2.25801
47 1 20.4152 1.51576 2.88612
48 1 19.5346 1.3616 2.22186
49 1 19.413 1.99052 1.39873
50 1 19.1255 1.7486 0.516771
ITEM: TIMESTEP
4000
ITEM: NUMBER OF ATOMS
50
ITEM: BOX BOUNDS pp pp pp
-5.0000000000000000e+01 5.0000000000000000e+01
-5.0000000000000000e+01 5.0000000000000000e+01
-5.0000000000000000e+01 5.0000000000000000e+01
ITEM: ATOMS id type x y z
1 1 20.8618 2.11105 0.811919
2 1 21.3993 2.75649 0.0941148
3 1 20.403 3.08498 -0.388681
4 1 20.6981 2.24824 -0.597926
5 1 21.1754 1.48829 0.00854998
6 1 22.126 1.25817 -0.256513
7 1 22.6112 2.09559 -0.404884
8 1 22.2816 1.58272 -1.27086
9 1 22.5571 0.691055 -1.55561
10 1 22.2721 0.380744 -0.864175
11 1 22.703 -0.131121 -0.414467
12 1 23.344 0.0625724 -0.796103
13 1 23.2845 -0.818312 -1.23501
14 1 23.0582 -1.32652 -0.711615
15 1 23.6743 -0.979206 -0.0509697
16 1 23.9275 -0.155061 0.145111
17 1 23.2397 0.552345 0.349382
18 1 23.7696 0.243687 1.12618
19 1 24.7039 -0.0395849 1.46361
20 1 24.9831 -0.901002 1.2771
21 1 24.2841 -1.56462 0.68138
22 1 23.3272 -1.51187 0.895713
23 1 22.7867 -1.83739 0.356984
24 1 22.2659 -1.06974 1.07654
25 1 22.963 -0.439344 0.801366
26 1 23.5975 -0.771271 1.81404
27 1 22.6299 -1.11581 2.44275
28 1 22.1121 -0.395038 2.79917
29 1 21.8801 -0.269157 1.8703
30 1 21.1052 -0.112281 1.56267
31 1 21.0093 0.702488 1.06892
32 1 22.067 0.415903 0.848181
33 1 21.936 -0.484411 0.102029
34 1 21.9711 -1.02213 -0.4631
35 1 22.1081 -0.943942 -1.36261
36 1 22.284 -0.159251 -2.26165
37 1 21.3513 0.179283 -2.72792
38 1 21.139 0.883775 -2.00002
39 1 20.2976 0.342593 -2.6017
40 1 20.4568 0.146886 -1.68511
41 1 20.4329 1.05762 -1.08317
42 1 21.2196 0.877176 -0.928859
43 1 21.3707 -0.217116 -0.742978
44 1 20.9496 -0.86434 0.0491199
45 1 20.8603 -0.156863 0.312973
46 1 19.9893 -0.260339 -0.41419
47 1 19.8906 -0.630082 0.610719
48 1 20.7205 -1.177 1.07093
49 1 21.1484 -1.709 1.13785
50 1 21.2728 -2.09984 0.0404982
ITEM: TIMESTEP
5000
ITEM: NUMBER OF ATOMS
50
ITEM: BOX BOUNDS pp pp pp
-5.0000000000000000e+01 5.0000000000000000e+01
-5.0000000000000000e+01 5.0000000000000000e+01
-5.0000000000000000e+01 5.0000000000000000e+01
ITEM: ATOMS id type x y z
1 1 22.4199 -0.115779 0.0599862
2 1 21.8201 -0.093034 -0.760355
3 1 21.5684 0.59821 -1.315
4 1 20.7779 1.19539 -1.00204
5 1 21.0899 1.94363 -0.183814
6 1 22.0739 1.35663 -0.617575
7 1 21.5293 1.05494 0.311856
8 1 22.2717 1.26844 0.640645
9 1 22.7493 0.799593 0.0194724
10 1 23.6367 0.393153 0.30439
11 1 22.7499 0.377726 1.03701
12 1 21.7137 0.425944 1.06807
13 1 21.5274 1.44371 1.26286
14 1 22.3809 1.12691 1.64844
15 1 21.9185 0.804486 2.24013
16 1 22.5426 0.0144146 1.90969
17 1 22.9972 -1.05395 1.81873
18 1 22.0456 -1.06088 1.67246
19 1 21.6291 -1.70626 1.07892
20 1 20.7254 -1.04535 0.767069
21 1 20.7892 -1.08091 1.87189
22 1 21.3437 -0.225481 1.80723
23 1 20.8688 0.561367 2.17087
24 1 20.6341 1.3998 1.82456
25 1 20.6879 0.545787 1.01027
26 1 19.8407 0.547737 1.48237
27 1 19.6154 1.04535 0.731053
28 1 19.5858 -0.0246535 0.186319
29 1 20.319 0.555858 -0.375332
30 1 20.97 -0.283165 -0.249239
31 1 21.6527 -0.758612 0.373087
32 1 22.4268 -1.40517 0.234378
33 1 22.6182 -0.761737 0.870674
34 1 23.5624 -1.16008 0.617615
35 1 24.1469 -1.74139 -0.0308796
36 1 24.4144 -0.997011 -0.621562
37 1 24.5455 -0.42734 -1.49422
38 1 23.8991 0.237716 -1.58187
39 1 23.731 0.568121 -2.262
40 1 23.1947 1.35864 -2.37182
41 1 22.7837 0.605712 -1.56684
42 1 23.1852 0.0112145 -0.687286
43 1 22.7067 -0.842619 -0.510359
44 1 21.7112 -1.38985 -0.633586
45 1 21.9856 -0.999918 -1.2893
46 1 22.4241 -1.30166 -2.22989
47 1 21.3807 -0.77133 -2.94178
48 1 22.2804 -0.240733 -2.6901
49 1 22.0181 -0.210115 -1.90296
50 1 23.0105 -0.543453 -1.70226
ITEM: TIMESTEP
6000
ITEM: NUMBER OF ATOMS
50
ITEM: BOX BOUNDS pp pp pp
-5.0000000000000000e+01 5.0000000000000000e+01
-5.0000000000000000e+01 5.0000000000000000e+01
-5.0000000000000000e+01 5.0000000000000000e+01
ITEM: ATOMS id type x y z
1 1 23.0846 -0.480489 -1.50056
2 1 23.3234 0.535328 -1.55367
3 1 23.8255 1.40789 -0.911187
4 1 23.2097 1.51662 -0.334717
5 1 22.2573 1.4401 -0.781104
6 1 21.8927 2.4396 -0.904865
7 1 21.8841 2.08456 -0.00443321
8 1 21.2544 1.49716 0.210946
9 1 20.4015 1.75848 0.500295
10 1 20.9962 1.46167 1.4608
11 1 21.3059 0.718602 1.34554
12 1 21.4184 0.511612 0.459383
13 1 21.8776 -0.391997 0.323389
14 1 21.2502 -1.27428 -0.0360619
15 1 20.6561 -1.27141 -0.419712
16 1 21.2042 -1.04911 -1.03428
17 1 22.1798 -1.05917 -0.81486
18 1 22.2456 -1.75706 -1.6391
19 1 21.8441 -0.800134 -2.45648
20 1 20.9725 -0.503724 -2.44395
21 1 20.9181 -0.143864 -1.59819
22 1 19.9794 -0.648094 -1.71018
23 1 19.5989 -1.24374 -0.942781
24 1 19.9406 -0.868397 0.150107
25 1 19.7664 -0.213947 -0.627183
26 1 20.262 0.634005 -0.103936
27 1 21.182 0.814234 -0.591699
28 1 21.1781 -0.127134 -0.348457
29 1 22.0199 0.172743 -0.586933
30 1 22.6487 0.303197 0.125755
31 1 22.5526 0.875885 0.364474
32 1 22.0736 1.4056 0.932831
33 1 22.2204 0.50554 1.30615
34 1 22.2311 0.887617 2.0676
35 1 21.9666 -0.209526 2.11574
36 1 21.3303 -0.397142 1.48682
37 1 20.9478 -0.201247 2.17088
38 1 21.2551 -1.31211 2.19204
39 1 22.1389 -1.04535 1.63765
40 1 22.9625 -0.445216 1.47995
41 1 23.9373 -0.193519 1.56423
42 1 24.4082 -0.237322 0.816121
43 1 23.5499 -0.332222 0.599558
44 1 22.8024 -0.986274 0.520427
45 1 23.2505 -1.19379 -0.128302
46 1 23.1751 -0.349594 -0.415252
47 1 23.5313 0.514745 -0.423053
48 1 24.3731 -0.318031 -0.353263
49 1 24.6594 -0.964447 -1.01674
50 1 24.5563 -1.46687 -0.149741
ITEM: TIMESTEP
7000
ITEM: NUMBER OF ATOMS
50
ITEM: BOX BOUNDS pp pp pp
-5.0000000000000000e+01 5.0000000000000000e+01
-5.0000000000000000e+01 5.0000000000000000e+01
-5.0000000000000000e+01 5.0000000000000000e+01
ITEM: ATOMS id type x y z
1 1 23.1929 0.939746 0.731574
2 1 22.7209 1.13256 -0.023857
3 1 22.9797 0.312767 0.0501047
4 1 23.5954 -0.0775069 0.655221
5 1 24.5025 -0.47074 0.259774
6 1 24.0818 0.413021 -0.448284
7 1 23.7685 1.28867 -0.0875314
8 1 22.9501 1.93381 -0.727721
9 1 21.952 2.32705 -0.826977
10 1 21.8929 1.42225 -0.522769
11 1 21.163 1.36229 -1.38705
12 1 21.323 0.561678 -0.879562
13 1 20.6454 -0.0950238 -0.977686
14 1 21.5991 -0.341257 -1.29239
15 1 22.5949 -0.601522 -1.91136
16 1 22.696 -1.36432 -1.04527
17 1 22.3693 -0.506088 -0.318121
18 1 22.9244 -1.38049 0.431122
19 1 24.0879 -1.58062 0.278582
20 1 23.4938 -0.725804 -0.173671
21 1 23.9253 -1.43857 -0.694546
22 1 24.7496 -0.770311 -0.761448
23 1 24.8147 0.0454078 -1.39099
24 1 24.7129 0.952196 -1.38475
25 1 23.7254 0.816413 -1.64239
26 1 23.5954 1.69497 -1.92799
27 1 22.7776 1.1188 -1.52048
28 1 22.3796 0.414242 -0.982273
29 1 21.7726 0.574547 0.255391
30 1 20.8408 0.564496 0.527898
31 1 20.1751 0.771851 -0.291347
32 1 19.1755 1.11616 0.0606742
33 1 19.5704 0.0840513 0.458752
34 1 19.0986 -0.751747 -0.220544
35 1 19.6258 -1.19904 0.576991
36 1 19.8361 -0.916135 1.29048
37 1 20.5988 -1.27774 0.850034
38 1 20.3957 -0.545812 0.102185
39 1 21.5987 -0.741649 0.429538
40 1 21.9578 -1.72741 0.125422
41 1 22.0611 -1.59018 1.11195
42 1 21.264 -2.16041 0.995083
43 1 21.3084 -1.07562 1.59882
44 1 21.8314 -0.343827 1.35689
45 1 22.5999 -0.0188674 0.953266
46 1 22.0278 0.844995 1.24634
47 1 21.2931 0.540022 1.54904
48 1 20.707 -0.219212 1.35159
49 1 19.8495 -0.0719794 1.9634
50 1 19.698 0.759867 2.22888
ITEM: TIMESTEP
8000
ITEM: NUMBER OF ATOMS
50
ITEM: BOX BOUNDS pp pp pp
-5.0000000000000000e+01 5.0000000000000000e+01
-5.0000000000000000e+01 5.0000000000000000e+01
-5.0000000000000000e+01 5.0000000000000000e+01
ITEM: ATOMS id type x y z
1 1 23.0509 1.55662 0.0542043
2 1 22.6823 1.70135 -0.940786
3 1 21.6193 2.09067 -0.975726
4 1 20.9221 1.70833 -0.419926
5 1 21.5237 1.91602 0.341039
6 1 22.3628 1.81022 0.870735
7 1 23.2701 1.25377 1.01505
8 1 23.8608 0.835615 0.159411
9 1 24.0082 0.554867 -0.998386
10 1 24.1073 1.4176 -1.02969
11 1 23.7132 0.848292 -1.92647
12 1 23.5408 -0.0717054 -1.68242
13 1 22.4394 0.604744 -1.5682
14 1 23.0276 0.540437 -1.05084
15 1 23.5873 -0.00321475 -0.230587
16 1 23.0908 -0.655734 -0.61745
17 1 22.8508 -0.84489 0.358428
18 1 22.1381 -0.386352 0.944751
19 1 21.5674 0.442646 0.696818
20 1 21.55 0.267756 1.62729
21 1 21.8195 1.18426 2.23471
22 1 22.2848 0.576169 2.73748
23 1 21.4589 -0.0576357 2.90819
24 1 22.2218 -0.607833 2.47305
25 1 22.7743 -0.912864 1.85208
26 1 22.6584 0.150648 1.73453
27 1 23.3696 -0.0839068 0.917233
28 1 22.6808 0.33513 0.427513
29 1 22.3519 0.114514 -0.202592
30 1 21.9844 1.26566 -0.348902
31 1 21.3664 0.531905 -0.622222
32 1 20.7658 0.885269 -1.2069
33 1 21.0525 0.624716 -2.18113
34 1 21.3782 -0.335004 -2.3837
35 1 22.4881 -0.106735 -2.53435
36 1 23.1636 -0.746344 -2.45581
37 1 22.5861 -0.997374 -1.6563
38 1 21.8884 -0.625155 -0.927245
39 1 21.0103 -1.1245 -0.821188
40 1 21.1307 -1.87955 -0.117534
41 1 21.7088 -1.13266 0.115244
42 1 21.8156 -1.65888 1.01877
43 1 21.0316 -0.988727 0.893312
44 1 20.6951 -0.260304 0.762411
45 1 20.6684 -0.462824 -0.0724703
46 1 19.9018 -0.871208 0.760741
47 1 19.8084 -1.31525 -0.282151
48 1 20.0167 -2.04573 0.232028
49 1 20.3055 -2.4515 0.937385
50 1 21.2005 -2.59133 1.18056
ITEM: TIMESTEP
9000
ITEM: NUMBER OF ATOMS
50
ITEM: BOX BOUNDS pp pp pp
-5.0000000000000000e+01 5.0000000000000000e+01
-5.0000000000000000e+01 5.0000000000000000e+01
-5.0000000000000000e+01 5.0000000000000000e+01
ITEM: ATOMS id type x y z
1 1 22.3525 1.88875 -1.26564
2 1 21.5558 1.95294 -0.864441
3 1 21.799 1.85076 -0.0218183
4 1 22.3979 1.38662 -0.31428
5 1 23.4262 0.98854 -0.268576
6 1 23.7379 1.42296 0.446952
7 1 23.8672 0.873162 1.52029
8 1 24.3353 1.11641 2.55054
9 1 23.3536 0.786282 2.48832
10 1 22.6353 1.12482 2.1582
11 1 22.1772 0.431573 1.52892
12 1 23.2205 0.0778237 1.80031
13 1 22.9724 0.751068 0.98261
14 1 22.4835 1.29543 0.768245
15 1 21.7149 1.59886 1.38853
16 1 21.0345 1.47552 1.47989
17 1 20.6605 0.630947 1.96916
18 1 20.7918 -0.257021 1.62194
19 1 21.0466 -0.145796 0.62587
20 1 21.7759 -0.420334 -0.00994451
21 1 22.5903 0.315931 -0.268511
22 1 21.3652 0.520546 -0.515481
23 1 21.9155 0.882048 -1.13751
24 1 21.6769 0.228384 -1.56757
25 1 20.719 -0.408941 -1.37917
26 1 20.3006 0.211005 -0.531494
27 1 20.5431 1.0866 -0.348955
28 1 20.7022 1.78988 0.36724
29 1 21.2812 0.891488 0.511212
30 1 21.9604 0.428504 0.528262
31 1 22.805 -0.36529 0.609326
32 1 23.5379 -1.01155 0.606039
33 1 23.4864 -0.903857 -0.562151
34 1 22.4236 -1.3018 -0.156355
35 1 23.0748 -1.89327 0.253991
36 1 22.93 -2.47133 -0.445265
37 1 21.9577 -2.21466 -0.472668
38 1 21.8477 -2.34375 0.40473
39 1 21.5185 -1.26257 0.539448
40 1 20.7747 -0.918777 -0.313556
41 1 20.5638 -1.7449 -1.1459
42 1 19.9278 -1.03612 -1.54354
43 1 20.6597 -1.01922 -2.41742
44 1 21.3695 -0.976563 -2.04117
45 1 21.5607 -0.962348 -1.08775
46 1 21.6923 -1.73771 -1.32585
47 1 22.5843 -1.52311 -1.17504
48 1 23.288 -0.903604 -1.70786
49 1 22.6274 -0.251818 -1.18704
50 1 23.4773 0.0674941 -1.07509
ITEM: TIMESTEP
10000
ITEM: NUMBER OF ATOMS
50
ITEM: BOX BOUNDS pp pp pp
-5.0000000000000000e+01 5.0000000000000000e+01
-5.0000000000000000e+01 5.0000000000000000e+01
-5.0000000000000000e+01 5.0000000000000000e+01
ITEM: ATOMS id type x y z
1 1 21.2464 1.00699 1.27035
2 1 22.1243 1.30532 1.54567
3 1 21.5523 1.9868 1.45083
4 1 21.6977 1.43974 0.420981
5 1 21.5619 0.838224 -0.285214
6 1 21.9936 0.33755 0.384874
7 1 22.6902 -0.22591 0.678839
8 1 22.4812 -0.910907 0.459168
9 1 21.6815 -0.737497 1.13691
10 1 21.2229 -0.434505 0.172671
11 1 20.7861 0.463756 0.264865
12 1 20.1584 1.1079 0.591553
13 1 20.6887 1.59702 -0.0250886
14 1 20.8354 1.85211 -0.940351
15 1 21.2533 1.10686 -1.39212
16 1 20.3948 0.815225 -0.649789
17 1 21.025 -0.0979084 -1.15084
18 1 21.557 -0.779094 -1.52622
19 1 22.5596 -0.781142 -1.43
20 1 22.9808 -0.170381 -0.489716
21 1 23.6369 -0.215898 0.115363
22 1 23.0986 0.676459 0.929893
23 1 22.8246 1.5583 0.644432
24 1 23.8802 1.32244 0.468932
25 1 23.6343 2.32638 0.337392
26 1 22.5736 2.28784 -0.117142
27 1 22.3038 1.80313 -0.942828
28 1 22.8171 0.95965 -0.308883
29 1 22.2653 0.448841 -1.00153
30 1 21.9703 -0.398956 -0.58343
31 1 21.6763 -1.3285 -0.415516
32 1 20.8329 -1.40764 -0.543589
33 1 20.4041 -1.26004 0.247731
34 1 19.8114 -0.551048 0.335952
35 1 20.1164 -0.0624472 -0.200737
36 1 20.1467 -0.664557 -0.719573
37 1 19.7819 -1.23471 -1.51661
38 1 20.7836 -1.51973 -1.66683
39 1 21.1445 -2.51012 -1.99319
40 1 21.8796 -1.99534 -1.49394
41 1 22.3774 -2.13275 -0.76738
42 1 23.0011 -1.74411 -0.212627
43 1 23.8081 -1.23679 -0.36615
44 1 24.429 -1.13517 0.43577
45 1 24.4276 -1.67556 1.15893
46 1 23.4624 -1.1947 1.11921
47 1 23.1148 -0.319401 1.96853
48 1 23.7147 -0.236748 1.20027
49 1 24.3977 0.504034 1.48203
50 1 23.6938 1.21703 1.91815
ITEM: TIMESTEP
11000
ITEM: NUMBER OF ATOMS
50
ITEM: BOX BOUNDS pp pp pp
-5.0000000000000000e+01 5.0000000000000000e+01
-5.0000000000000000e+01 5.0000000000000000e+01
-5.0000000000000000e+01 5.0000000000000000e+01
ITEM: ATOMS id type x y z
1 1 20.5678 1.50075 -0.0652703
2 1 21.0474 1.03219 0.702274
3 1 20.8902 0.53763 1.10928
4 1 19.8931 0.514967 1.21596
5 1 20.4 0.332212 0.184839
6 1 21.5039 0.198752 0.0999209
7 1 21.4744 -0.224236 0.660793
8 1 20.9592 -0.840983 0.17838
9 1 20.6783 -0.410378 -0.53769
10 1 21.3057 -0.240241 -0.758866
11 1 21.2644 -1.10249 -1.08635
12 1 21.8419 -0.954701 -1.89976
13 1 21.822 0.0102667 -1.9189
14 1 22.8064 -0.173637 -2.06644
15 1 23.1575 0.730204 -2.35653
16 1 23.4102 1.40272 -1.66072
17 1 22.8419 1.51053 -1.00741
18 1 23.6954 0.863408 -0.658293
19 1 23.4383 0.557377 0.102374
20 1 23.041 0.843227 1.3151
21 1 22.3044 0.132342 0.968385
22 1 21.9827 0.685372 1.66592
23 1 22.11 1.62083 1.23726
24 1 22.2402 2.50452 0.68725
25 1 22.3932 2.03046 0.0211847
26 1 21.7454 1.44476 -0.541968
27 1 22.0523 1.02753 0.346163
28 1 22.5258 0.711409 -0.299959
29 1 22.1507 0.409568 -1.07485
30 1 22.3907 -0.617057 -1.07018
31 1 22.1763 -0.535341 -0.180066
32 1 22.8117 -0.338228 0.137465
33 1 23.2382 -1.27287 0.0668113
34 1 22.5707 -1.65682 -0.598895
35 1 22.7607 -1.60842 -1.73813
36 1 23.5491 -0.905182 -1.65869
37 1 23.7227 0.000918574 -1.5323
38 1 23.4096 -0.384688 -0.792775
39 1 23.8754 -0.433159 0.0982164
40 1 23.3937 -0.280459 1.0151
41 1 22.762 -0.811687 1.58218
42 1 21.8225 -1.02519 1.13864
43 1 21.5879 -1.72924 0.562516
44 1 20.3774 -1.68209 0.250825
45 1 19.7671 -0.884777 0.378872
46 1 20.0989 -0.567571 0.921349
47 1 20.7626 -1.36732 1.17156
48 1 21.0354 -0.50059 1.50574
49 1 21.9106 -0.233793 2.20247
50 1 22.933 0.17921 1.97722
ITEM: TIMESTEP
12000
ITEM: NUMBER OF ATOMS
50
ITEM: BOX BOUNDS pp pp pp
-5.0000000000000000e+01 5.0000000000000000e+01
-5.0000000000000000e+01 5.0000000000000000e+01
-5.0000000000000000e+01 5.0000000000000000e+01
ITEM: ATOMS id type x y z
1 1 22.6601 0.826691 -2.56543
2 1 21.9812 0.451931 -3.15702
3 1 21.6395 0.342621 -2.39734
4 1 22.0381 0.708626 -1.56722
5 1 22.2135 1.51242 -1.64254
6 1 22.8625 2.18628 -0.830252
7 1 23.3838 1.42248 -0.470517
8 1 23.283 1.23448 -1.22923
9 1 23.045 0.220322 -1.39374
10 1 23.2376 -0.563733 -0.778719
11 1 23.4031 -0.636633 -0.00411756
12 1 23.6903 0.326749 -0.382415
13 1 23.9882 -0.0218801 0.592681
14 1 22.9436 0.394059 0.50827
15 1 22.4591 1.22478 0.674997
16 1 21.6123 0.872842 0.917341
17 1 20.9942 1.2672 1.66967
18 1 21.8254 0.49015 2.05135
19 1 22.252 -0.253259 1.54009
20 1 21.4694 -0.236363 1.30379
21 1 20.7876 0.279542 1.41181
22 1 20.9597 0.357992 0.336728
23 1 20.331 1.12294 0.587634
24 1 20.2643 1.23208 -0.186392
25 1 21.0997 1.77129 0.0341196
26 1 21.2998 2.06185 -0.829182
27 1 21.2807 1.13175 -1.14164
28 1 21.6231 0.935617 -0.233589
29 1 22.4307 0.646633 -0.455165
30 1 22.1021 -0.0155367 -0.747364
31 1 21.7956 -0.298367 0.21772
32 1 22.4839 -0.732713 0.634924
33 1 23.2842 -0.64694 1.26133
34 1 22.7623 -1.24029 1.7724
35 1 22.7029 -0.706706 2.62781
36 1 21.7846 -0.723286 2.4943
37 1 21.5662 -1.52932 2.02027
38 1 21.9662 -1.99381 1.24452
39 1 22.7006 -2.06192 0.914528
40 1 23.425 -1.55907 0.673727
41 1 23.0413 -1.79349 -0.364339
42 1 22.721 -1.3369 -1.36329
43 1 21.8508 -1.1327 -1.25179
44 1 22.194 -1.01134 -0.432247
45 1 21.7301 -1.60788 0.286105
46 1 20.8425 -1.77436 0.19616
47 1 21.03 -0.802636 -0.250311
48 1 20.2753 -0.309773 -0.225912
49 1 20.0737 0.0363888 -1.04027
50 1 21.1091 -0.0687907 -1.03225
ITEM: TIMESTEP
13000
ITEM: NUMBER OF ATOMS
50
ITEM: BOX BOUNDS pp pp pp
-5.0000000000000000e+01 5.0000000000000000e+01
-5.0000000000000000e+01 5.0000000000000000e+01
-5.0000000000000000e+01 5.0000000000000000e+01
ITEM: ATOMS id type x y z
1 1 23.6417 -0.325792 0.160312
2 1 23.3566 -0.967449 0.834408
3 1 23.6088 -1.28056 1.83768
4 1 23.8045 -0.281734 1.88268
5 1 23.7383 0.647997 1.62442
6 1 22.8082 1.009 1.81822
7 1 22.4597 1.57195 1.14806
8 1 22.1514 2.35807 1.85424
9 1 21.8871 1.45028 2.32945
10 1 21.1305 1.85695 2.1397
11 1 21.5596 2.02713 1.11535
12 1 21.5361 2.02386 0.165147
13 1 21.1418 2.04763 -0.799616
14 1 20.5828 1.61663 -0.0504507
15 1 21.3885 0.933716 -0.202505
16 1 21.6796 0.5976 -0.905967
17 1 20.6044 0.845134 -1.07026
18 1 20.0936 0.276215 -0.725086
19 1 20.6124 -0.501782 -0.999009
20 1 21.1883 -0.114399 -1.72657
21 1 21.9193 -0.753508 -1.53328
22 1 21.7956 -0.965329 -2.45615
23 1 22.6114 -0.363357 -2.15445
24 1 22.5777 -0.0508259 -1.0087
25 1 22.9441 0.900269 -1.01562
26 1 23.6808 1.391 -0.401819
27 1 23.3263 2.20945 0.0910031
28 1 22.6068 1.50533 0.0992459
29 1 22.9759 0.588353 0.114141
30 1 22.6462 0.0916722 0.892644
31 1 21.9728 0.794626 0.563151
32 1 21.4775 0.656617 1.5588
33 1 20.7822 0.0694022 1.07387
34 1 20.9098 0.0512458 -0.0105517
35 1 21.7261 -0.388154 0.599366
36 1 21.8659 -1.46618 0.468718
37 1 21.0585 -1.11718 0.922366
38 1 20.5477 -1.23004 0.212482
39 1 21.0678 -2.26796 0.156746
40 1 21.3999 -3.09825 -0.7201
41 1 22.0951 -2.39948 -0.286116
42 1 22.3716 -1.54331 -0.597291
43 1 22.5843 -0.679947 -0.201909
44 1 21.6358 -0.433493 -0.550927
45 1 21.3199 -1.32649 -0.475621
46 1 21.0786 -1.45443 -1.27607
47 1 22.2094 -1.92773 -1.52582
48 1 22.9369 -1.184 -1.48443
49 1 23.8831 -0.230814 -0.989577
50 1 23.5191 -1.16793 -0.494333
ITEM: TIMESTEP
14000
ITEM: NUMBER OF ATOMS
50
ITEM: BOX BOUNDS pp pp pp
-5.0000000000000000e+01 5.0000000000000000e+01
-5.0000000000000000e+01 5.0000000000000000e+01
-5.0000000000000000e+01 5.0000000000000000e+01
ITEM: ATOMS id type x y z
1 1 21.077 1.14029 2.4122
2 1 21.5424 0.685723 1.67899
3 1 22.2615 -0.143125 2.09689
4 1 21.9979 -1.12276 1.95695
5 1 21.7795 -0.449079 1.27729
6 1 20.8129 -0.312085 1.19574
7 1 20.1015 0.589435 0.959454
8 1 19.9018 0.0913787 0.0815991
9 1 20.1758 1.25867 -0.149532
10 1 20.9883 1.45913 -0.584077
11 1 21.8242 0.842978 -0.694725
12 1 22.0912 1.78629 -0.295937
13 1 21.7757 1.58862 -1.47367
14 1 22.3457 0.604656 -1.49148
15 1 22.6992 0.25988 -1.16972
16 1 22.6507 0.437947 -0.2269
17 1 23.0351 1.2909 -0.0331371
18 1 23.7358 1.77424 -0.443916
19 1 22.8484 1.62435 -1.01017
20 1 23.7123 0.907095 -0.968535
21 1 24.5719 0.555388 -0.971058
22 1 24.6504 1.21333 -0.223103
23 1 23.9747 0.672121 0.13253
24 1 23.5269 0.0328079 -0.471336
25 1 23.374 -0.138364 0.359841
26 1 22.9348 -0.0993345 1.18033
27 1 22.5469 0.603432 0.847769
28 1 21.8586 1.26841 0.763025
29 1 21.0848 1.028 0.845621
30 1 21.756 0.2731 0.456879
31 1 21.8608 -0.124466 -0.500488
32 1 20.84 0.140937 -0.425866
33 1 20.6972 0.679703 -1.07029
34 1 21.4788 0.103215 -1.50542
35 1 22.0252 -0.708142 -1.31523
36 1 22.344 -1.48292 -1.05176
37 1 21.7526 -2.32715 -0.712271
38 1 21.3186 -1.43639 -0.71227
39 1 20.2804 -1.35287 -1.06528
40 1 19.8221 -1.48947 -0.0509466
41 1 20.5326 -1.92651 0.254144
42 1 20.606 -0.870481 0.320718
43 1 21.5203 -0.8251 0.222177
44 1 22.4042 -0.410006 0.286231
45 1 22.7328 -0.676177 -0.42121
46 1 23.356 -1.44896 -0.381497
47 1 23.9749 -0.954806 0.232332
48 1 23.0758 -1.32187 0.669007
49 1 22.3869 -1.4067 0.202764
50 1 21.8551 -1.88527 0.987362
ITEM: TIMESTEP
15000
ITEM: NUMBER OF ATOMS
50
ITEM: BOX BOUNDS pp pp pp
-5.0000000000000000e+01 5.0000000000000000e+01
-5.0000000000000000e+01 5.0000000000000000e+01
-5.0000000000000000e+01 5.0000000000000000e+01
ITEM: ATOMS id type x y z
1 1 20.2986 -1.17292 -0.442964
2 1 21.1786 -0.638092 -0.442587
3 1 20.7195 0.31098 -0.338709
4 1 20.7787 1.05418 -0.854054
5 1 20.5433 0.297522 -1.49146
6 1 20.8307 0.94369 -2.2021
7 1 21.0571 1.81503 -1.60689
8 1 21.3802 2.76903 -1.58127
9 1 21.7834 1.78522 -0.910853
10 1 21.8098 0.943286 -0.628712
11 1 21.7662 0.751713 -1.52139
12 1 21.5118 -0.0046417 -1.1717
13 1 22.4485 -0.0270773 -1.21144
14 1 23.0031 0.729451 -0.802883
15 1 22.8537 1.53421 -1.19536
16 1 22.6239 2.30422 -0.737192
17 1 22.5367 1.614 -0.153705
18 1 21.8948 2.10127 0.260178
19 1 22.8038 1.85122 0.855882
20 1 23.3065 1.31667 1.48739
21 1 22.5165 1.04 2.21348
22 1 21.5613 0.55861 2.0086
23 1 20.8866 1.10058 1.83613
24 1 20.8761 0.7105 0.871919
25 1 21.5619 0.983217 0.474219
26 1 22.1002 1.00143 1.17651
27 1 22.5606 0.189036 1.63414
28 1 21.9681 0.0756355 0.992881
29 1 21.873 0.0460034 0.00861939
30 1 22.9419 0.0787019 0.0313679
31 1 22.9563 0.851284 0.596963
32 1 23.5133 0.348702 1.35857
33 1 24.1022 -0.265869 1.75066
34 1 23.6944 -0.826477 0.973721
35 1 23.173 -1.32842 1.25467
36 1 23.7954 -1.95317 0.934135
37 1 23.9511 -1.44788 0.169584
38 1 23.0234 -1.2587 0.0666289
39 1 23.2208 -0.997763 -0.875933
40 1 22.7323 -1.90907 -0.73374
41 1 21.7328 -1.91765 -0.390727
42 1 21.568 -1.34935 -1.23691
43 1 22.1928 -0.914395 -0.547134
44 1 22.2386 -0.800112 0.528957
45 1 21.3966 -0.901845 0.718571
46 1 21.92 -1.8129 0.799221
47 1 21.3619 -2.55963 0.384124
48 1 20.6842 -2.18889 -0.0856407
49 1 20.5843 -2.86694 -0.970108
50 1 20.6833 -1.96359 -1.25368
ITEM: TIMESTEP
16000
ITEM: NUMBER OF ATOMS
50
ITEM: BOX BOUNDS pp pp pp
-5.0000000000000000e+01 5.0000000000000000e+01
-5.0000000000000000e+01 5.0000000000000000e+01
-5.0000000000000000e+01 5.0000000000000000e+01
ITEM: ATOMS id type x y z
1 1 21.6602 0.0767365 -1.58959
2 1 21.2632 0.807653 -1.16652
3 1 21.352 1.60577 -1.69758
4 1 22.1174 0.822983 -2.12688
5 1 22.5255 1.66187 -2.02584
6 1 23.2587 0.977107 -2.01458
7 1 23.8118 1.6671 -1.60357
8 1 23.5764 0.828038 -0.817756
9 1 23.3971 -0.0923742 -0.448136
10 1 22.6896 -0.256059 0.22647
11 1 23.0276 0.582143 0.811844
12 1 23.4007 0.212542 1.4528
13 1 23.1601 1.2706 1.60613
14 1 22.7803 1.88458 0.698489
15 1 22.1193 1.38473 1.05325
16 1 21.114 1.17714 1.24842
17 1 21.2886 1.72968 0.367883
18 1 21.5882 1.4406 -0.33346
19 1 21.058 0.834111 -0.0450343
20 1 20.1186 0.365704 -0.184886
21 1 19.9722 -0.679952 -0.60492
22 1 20.7591 -0.823809 0.0679916
23 1 21.4508 -0.403401 -0.33482
24 1 22.3492 0.0144989 -0.813644
25 1 22.4782 1.2327 -1.05269
26 1 22.7492 0.982597 -0.152161
27 1 22.0299 0.503031 0.17974
28 1 21.795 0.404094 1.22414
29 1 22.2216 0.906414 2.0712
30 1 21.6517 0.811458 3.03882
31 1 20.8483 0.861259 2.47751
32 1 21.6543 -0.0370076 2.3459
33 1 20.9403 -0.107555 1.51445
34 1 21.0516 -0.058258 0.596407
35 1 21.7904 -0.487213 0.812369
36 1 22.442 -0.411517 1.67016
37 1 22.2288 -1.33753 1.34516
38 1 22.2652 -2.12783 0.722034
39 1 22.0049 -2.52683 0.100833
40 1 22.2897 -2.26083 -0.624303
41 1 23.0434 -2.72128 -0.0668067
42 1 22.8553 -1.60253 0.130818
43 1 22.1177 -1.27533 0.126889
44 1 21.5226 -1.6203 -0.152955
45 1 21.0559 -1.2824 -0.888881
46 1 21.3615 -2.07132 -1.58699
47 1 21.7615 -1.0768 -1.52401
48 1 22.6122 -0.95364 -0.67811
49 1 23.0743 -0.763756 -1.4603
50 1 22.8161 -0.067617 -1.89527
ITEM: TIMESTEP
17000
ITEM: NUMBER OF ATOMS
50
ITEM: BOX BOUNDS pp pp pp
-5.0000000000000000e+01 5.0000000000000000e+01
-5.0000000000000000e+01 5.0000000000000000e+01
-5.0000000000000000e+01 5.0000000000000000e+01
ITEM: ATOMS id type x y z
1 1 24.2657 2.0427 -0.938439
2 1 23.6603 1.39983 -1.56174
3 1 23.8395 0.963028 -0.482931
4 1 23.0839 0.99198 0.199398
5 1 23.3107 1.99985 0.562692
6 1 23.2764 1.44151 1.36101
7 1 22.5857 0.875312 1.09682
8 1 22.5084 -0.103914 0.756625