ITEM: TIMESTEP
0
ITEM: NUMBER OF ATOMS
50
ITEM: BOX BOUNDS pp pp pp
-5.0000000000000000e+01 5.0000000000000000e+01
-5.0000000000000000e+01 5.0000000000000000e+01
-5.0000000000000000e+01 5.0000000000000000e+01
ITEM: ATOMS id type x y z
1 1 -2.3282 0 0
2 1 -1.33073 0 0
3 1 -0.335806 0 0
4 1 0.659093 0 0
5 1 1.65404 0 0
6 1 2.64901 0 0
7 1 3.64395 0 0
8 1 4.63886 0 0
9 1 5.63377 0 0
10 1 6.62868 0 0
11 1 7.62361 0 0
12 1 8.61853 0 0
13 1 9.61345 0 0
14 1 10.6084 0 0
15 1 11.6033 0 0
16 1 12.5982 0 0
17 1 13.5931 0 0
18 1 14.5881 0 0
19 1 15.583 0 0
20 1 16.5779 0 0
21 1 17.5728 0 0
22 1 18.5678 0 0
23 1 19.5627 0 0
24 1 20.5576 0 0
25 1 21.5525 0 0
26 1 22.5475 0 0
27 1 23.5424 0 0
28 1 24.5373 0 0
29 1 25.5322 0 0
30 1 26.5272 0 0
31 1 27.5221 0 0
32 1 28.517 0 0
33 1 29.5119 0 0
34 1 30.5069 0 0
35 1 31.5018 0 0
36 1 32.4967 0 0
37 1 33.4916 0 0
38 1 34.4865 0 0
39 1 35.4815 0 0
40 1 36.4764 0 0
41 1 37.4713 0 0
42 1 38.4662 0 0
43 1 39.4611 0 0
44 1 40.4561 0 0
45 1 41.451 0 0
46 1 42.446 0 0
47 1 43.4409 0 0
48 1 44.4358 0 0
49 1 45.4307 0 0
50 1 46.4282 0 0
ITEM: TIMESTEP
1000
ITEM: NUMBER OF ATOMS
50
ITEM: BOX BOUNDS pp pp pp
-5.0000000000000000e+01 5.0000000000000000e+01
-5.0000000000000000e+01 5.0000000000000000e+01
-5.0000000000000000e+01 5.0000000000000000e+01
ITEM: ATOMS id type x y z
1 1 8.73924 0.51329 0.102891
2 1 9.04817 1.46159 -0.0447358
3 1 9.66389 1.18518 0.715428
4 1 10.5038 1.51177 0.314745
5 1 10.0214 1.07196 -0.360786
6 1 10.1684 0.331419 0.303322
7 1 10.0253 -0.133448 1.00456
8 1 10.8872 -0.55071 0.640629
9 1 11.6072 0.0159996 0.290246
10 1 10.9996 0.29792 -0.547025
11 1 11.9128 0.618384 -0.59617
12 1 12.0564 -0.105713 -1.27286
13 1 12.9457 0.141239 -0.709512
14 1 13.7377 0.00874166 -0.898911
15 1 13.605 -0.357583 0.0954542
16 1 14.2962 -0.893128 -0.515518
17 1 14.9908 -0.282975 -0.601391
18 1 15.8972 -0.0103747 -0.26907
19 1 16.8717 -0.251704 -0.508105
20 1 17.7218 -0.4302 0.0287388
21 1 18.3266 -0.994168 -0.729507
22 1 18.8183 -0.59043 0.119595
23 1 19.4874 -1.02228 -0.425474
24 1 19.9829 -0.916975 0.371472
25 1 20.5862 -0.929944 -0.321599
26 1 21.433 -1.40022 0.191058
27 1 22.3799 -0.943249 -0.00895098
28 1 23.323 -1.10072 -0.538642
29 1 24.1673 -1.38959 -0.984284
30 1 25.0404 -0.998329 -1.26621
31 1 26.0133 -1.00077 -1.05016
32 1 26.9513 -0.637318 -1.06728
33 1 27.8653 -0.517294 -1.10884
34 1 28.8246 -0.0854085 -1.13726
35 1 29.8312 -0.615127 -1.08935
36 1 29.9583 0.0659125 -0.357775
37 1 30.6284 0.439001 0.313982
38 1 31.3251 0.466181 -0.463544
39 1 31.5745 0.825989 0.456146
40 1 32.5217 0.603503 0.276337
41 1 33.2818 0.268248 0.330984
42 1 33.7283 0.868894 0.776218
43 1 34.1004 0.755587 -0.179139
44 1 34.9096 0.137983 -0.139992
45 1 34.9478 0.769923 0.711414
46 1 35.4603 1.22894 1.39604
47 1 35.7755 0.253297 1.53303
48 1 34.9929 0.274735 1.94683
49 1 35.7156 0.862171 2.49518
50 1 34.8497 1.1798 2.7778
ITEM: TIMESTEP
2000
ITEM: NUMBER OF ATOMS
50
ITEM: BOX BOUNDS pp pp pp
-5.0000000000000000e+01 5.0000000000000000e+01
-5.0000000000000000e+01 5.0000000000000000e+01
-5.0000000000000000e+01 5.0000000000000000e+01
ITEM: ATOMS id type x y z
1 1 21.5773 0.971004 0.181997
2 1 21.1642 1.82833 0.340393
3 1 21.4414 2.45737 -0.299916
4 1 21.2497 1.64418 -0.649578
5 1 20.5247 0.909654 -0.236438
6 1 20.5122 0.892629 0.827489
7 1 21.0619 0.31588 0.798353
8 1 20.6439 -0.225782 0.312807
9 1 19.8917 -1.2712 0.0185796
10 1 19.6805 -0.510828 -0.114666
11 1 19.8805 -0.0177581 -0.724961
12 1 20.7617 0.200196 -0.983141
13 1 21.3615 0.13626 -0.337606
14 1 21.8387 -0.441089 0.387679
15 1 20.9947 -1.13036 0.463242
16 1 21.0767 -1.73904 -0.153574
17 1 20.453 -1.58468 -0.938821
18 1 20.6795 -0.750884 -0.638231
19 1 20.1515 -0.79623 -1.51969
20 1 21.1744 -0.853881 -1.82142
21 1 21.8518 -0.857796 -2.5118
22 1 21.815 -1.62171 -2.14767
23 1 22.2311 -1.11913 -1.51339
24 1 22.853 -1.00178 -0.708451
25 1 21.7641 -0.811024 -0.680794
26 1 21.7788 -0.242718 -1.24353
27 1 22.5382 0.123608 -1.07508
28 1 22.5371 1.18666 -1.51429
29 1 22.6472 0.841894 -0.341277
30 1 22.7954 0.0687857 -0.0884839
31 1 22.7576 -0.124287 0.738658
32 1 22.2573 -0.595176 1.33737
33 1 22.6769 -1.23585 1.69125
34 1 22.4682 -1.53519 0.932326
35 1 23.2155 -1.54551 0.567791
36 1 23.6136 -0.634516 0.708134
37 1 23.8384 -0.330534 -0.35432
38 1 24.0642 0.285311 0.509442
39 1 23.8305 0.937109 -0.125166
40 1 23.9021 0.624315 -1.09003
41 1 24.6692 0.447237 -0.540375
42 1 24.8301 1.02075 0.448507
43 1 23.7514 1.28086 0.889535
44 1 23.2131 0.671423 1.76183
45 1 22.8533 0.330095 2.64691
46 1 22.374 -0.488218 2.41507
47 1 22.1835 0.327942 1.868
48 1 21.5971 1.06736 1.44425
49 1 22.4743 1.15499 0.73985
50 1 22.9982 1.74131 0.323249
ITEM: TIMESTEP
3000
ITEM: NUMBER OF ATOMS
50
ITEM: BOX BOUNDS pp pp pp
-5.0000000000000000e+01 5.0000000000000000e+01
-5.0000000000000000e+01 5.0000000000000000e+01
-5.0000000000000000e+01 5.0000000000000000e+01
ITEM: ATOMS id type x y z
1 1 20.1245 1.43471 -2.31407
2 1 20.4043 1.27519 -3.47
3 1 20.56 0.409934 -2.77249
4 1 21.4583 0.625687 -2.43598
5 1 21.5535 1.60874 -1.97983
6 1 21.92 1.35608 -1.00306
7 1 22.4521 0.729308 -1.62147
8 1 23.221 0.19558 -1.70346
9 1 23.3748 1.09749 -1.15485
10 1 22.7662 0.595175 -0.60072
11 1 22.7582 -0.0248153 -0.841211
12 1 22.2139 -0.781055 -0.801897
13 1 22.9819 -1.51954 -0.57731
14 1 22.981 -1.04981 -1.62626
15 1 24.1511 -1.1254 -1.36456
16 1 24.9115 -0.897853 -2.06731
17 1 24.9614 -0.380762 -1.25178
18 1 24.1803 -0.031452 -1.42895
19 1 23.8282 0.452872 -0.356259
20 1 23.6954 0.644966 0.572903
21 1 22.9045 1.29879 0.181227
22 1 23.0042 -0.0448216 0.0723189
23 1 22.8348 -0.819004 0.311291
24 1 21.9709 -0.972017 0.259426
25 1 21.2488 -0.771334 0.0619215
26 1 21.9632 0.104473 -0.171428
27 1 21.0829 0.884909 -0.290815
28 1 20.9182 0.296275 -0.853132
29 1 20.7541 1.38886 -1.10244
30 1 20.4851 2.00433 -0.245982
31 1 19.9559 1.11858 0.281502
32 1 20.0683 0.666073 0.963884
33 1 20.3824 0.311682 1.48695
34 1 20.1556 -0.681054 1.41089
35 1 21.0073 -0.359046 1.05198
36 1 21.8962 -0.926603 1.35332
37 1 21.228 -1.44939 1.87738
38 1 21.3319 -1.57128 2.96064
39 1 22.0368 -2.20801 2.22988
40 1 22.6461 -1.72516 1.78486
41 1 23.0302 -1.97017 2.57652
42 1 22.9364 -1.13328 2.67163
43 1 22.0519 -0.841728 2.29669
44 1 22.7553 -0.550982 1.85224
45 1 22.6017 -0.135793 1.12726
46 1 22.2817 0.743855 0.949926
47 1 21.6848 0.593234 1.73994
48 1 21.0817 1.40487 1.20456
49 1 21.2179 0.619574 0.666671
50 1 20.4857 0.109118 0.0894215
ITEM: TIMESTEP
4000
ITEM: NUMBER OF ATOMS
50
ITEM: BOX BOUNDS pp pp pp
-5.0000000000000000e+01 5.0000000000000000e+01
-5.0000000000000000e+01 5.0000000000000000e+01
-5.0000000000000000e+01 5.0000000000000000e+01
ITEM: ATOMS id type x y z
1 1 22.5504 1.75754 -0.998949
2 1 22.7262 1.04877 -1.87709
3 1 23.6048 1.05426 -1.9754
4 1 23.3877 0.997583 -1.05828
5 1 22.6733 0.57465 -0.709518
6 1 21.8774 0.400033 -0.690631
7 1 21.2292 -0.387361 -1.30986
8 1 21.3136 0.604182 -1.80331
9 1 20.5791 0.521676 -1.09097
10 1 20.9322 0.503326 -0.231868
11 1 21.7854 0.780999 0.235472
12 1 22.7403 0.835557 0.38659
13 1 23.2816 0.170221 1.12517
14 1 23.2977 0.164548 2.31372
15 1 22.6643 -0.384607 2.10523
16 1 22.4564 -1.10258 2.68995
17 1 23.1891 -0.893356 2.91108
18 1 22.8747 0.043043 3.23149
19 1 22.3287 0.691673 2.75693
20 1 22.4705 0.556813 1.69971
21 1 22.2516 0.0976483 0.937744
22 1 21.5817 -0.26665 0.44975
23 1 21.4301 -0.651341 1.32697
24 1 21.6806 -1.42122 0.957348
25 1 22.442 -1.00311 1.18265
26 1 22.4913 -1.30759 0.251845
27 1 22.3579 -0.775945 -0.782915
28 1 23.2635 -1.3076 -0.5968
29 1 23.9524 -1.02919 -1.34207
30 1 23.9775 -0.940897 -2.35707
31 1 23.3181 -0.779957 -2.99389
32 1 23.3183 -0.0345923 -2.37967
33 1 22.2504 -0.376754 -1.82555
34 1 22.7049 -0.991593 -2.11818
35 1 21.9473 -1.53676 -2.25851
36 1 22.1845 -1.76957 -1.24191
37 1 21.4544 -2.52169 -0.649539
38 1 21.2543 -1.225 -0.801685
39 1 21.0792 -1.13098 0.203564
40 1 20.2692 -0.457251 -0.228036
41 1 20.5406 -0.272258 0.621289
42 1 20.7825 0.624985 0.799064
43 1 21.3127 0.519543 1.40064
44 1 21.2013 1.64099 1.2086
45 1 22.1977 1.51854 0.951215
46 1 22.1829 1.75773 -0.0736754
47 1 21.4201 1.37514 -0.602708
48 1 20.5916 1.63539 0.149225
49 1 19.5179 1.74085 0.660442
50 1 19.5811 0.952173 1.44238
ITEM: TIMESTEP
5000
ITEM: NUMBER OF ATOMS
50
ITEM: BOX BOUNDS pp pp pp
-5.0000000000000000e+01 5.0000000000000000e+01
-5.0000000000000000e+01 5.0000000000000000e+01
-5.0000000000000000e+01 5.0000000000000000e+01
ITEM: ATOMS id type x y z
1 1 24.5688 0.725636 2.30932
2 1 23.9335 0.959872 1.46287
3 1 24.61 0.449091 0.749652
4 1 23.8955 -0.29702 0.631808
5 1 23.3662 0.467384 0.461944
6 1 24.2212 0.237719 -0.276599
7 1 23.9339 1.34958 0.211579
8 1 23.1036 1.82575 -0.168614
9 1 22.521 1.22234 0.336778
10 1 22.8408 0.992857 -0.815805
11 1 22.7977 0.163391 -0.394708
12 1 21.8401 0.129642 0.0671209
13 1 21.2732 0.13176 -0.358261
14 1 20.5844 0.544527 0.358176
15 1 19.8649 -0.199591 0.0363622
16 1 19.6636 0.41807 -0.43882
17 1 19.6367 -0.829104 -0.985669
18 1 20.575 -0.888647 -1.3106
19 1 21.0315 -1.78793 -0.897175
20 1 21.649 -1.1 -0.804798
21 1 21.4741 -1.53638 0.0638273
22 1 20.6808 -0.735166 -0.239934
23 1 20.7555 -0.658014 0.726835
24 1 20.852 -0.493032 1.54855
25 1 21.8102 -0.899254 1.76707
26 1 22.0636 -0.169573 1.10843
27 1 21.2309 0.353351 1.32097
28 1 21.7574 0.335745 2.11592
29 1 22.4821 -0.015964 2.56853
30 1 23.3218 0.37887 1.99864
31 1 23.2041 -0.791371 2.41477
32 1 23.4055 -0.666328 1.4761
33 1 22.8422 -0.523568 0.571877
34 1 22.9919 -1.67671 0.817256
35 1 22.5332 -2.26765 0.919699
36 1 22.718 -1.84952 -0.139556
37 1 22.6471 -0.902526 -0.394592
38 1 22.2668 -0.323271 -1.17139
39 1 22.5284 -0.953366 -1.84271
40 1 22.5477 -0.218431 -2.32996
41 1 21.9654 0.498481 -2.60097
42 1 21.6225 0.877856 -1.92331
43 1 21.9382 0.554126 -0.984048
44 1 21.1868 -0.0350329 -1.38109
45 1 20.8566 -0.00555016 -2.16232
46 1 20.2749 0.540077 -1.43927
47 1 20.8197 1.02241 -0.829487
48 1 21.1146 1.86199 -1.28402
49 1 20.8899 2.15211 -0.430151
50 1 21.8074 1.63037 -0.440237
ITEM: TIMESTEP
6000
ITEM: NUMBER OF ATOMS
50
ITEM: BOX BOUNDS pp pp pp
-5.0000000000000000e+01 5.0000000000000000e+01
-5.0000000000000000e+01 5.0000000000000000e+01
-5.0000000000000000e+01 5.0000000000000000e+01
ITEM: ATOMS id type x y z
1 1 20.8777 -2.64107 1.9556
2 1 21.0424 -1.73265 2.08461
3 1 21.7998 -0.945204 2.1617
4 1 21.1408 -0.239991 2.0808
5 1 21.654 0.038877 1.28524
6 1 21.7242 0.923155 1.78819
7 1 22.2785 1.9651 1.40511
8 1 21.8493 1.36167 0.737199
9 1 21.8051 1.1302 -0.348624
10 1 22.414 0.514068 -0.89715
11 1 23.3468 -0.175472 -0.939352
12 1 24.191 -0.643874 -0.708796
13 1 23.947 -1.33881 -1.15175
14 1 23.4502 -1.94534 -0.694093
15 1 23.1493 -2.0659 0.223956
16 1 22.9606 -1.76198 1.18128
17 1 23.8713 -1.36813 0.764558
18 1 23.4347 -0.716587 -0.00802347
19 1 22.6371 -0.707965 -0.42031
20 1 22.4255 -1.67869 -0.935345
21 1 22.2408 -1.52765 -1.74458
22 1 21.6943 -0.871928 -1.4898
23 1 21.4828 -1.16955 -0.50531
24 1 20.7641 -0.408694 -0.273359
25 1 20.806 -0.955176 0.266882
26 1 21.6129 -0.634933 0.468092
27 1 21.8599 -0.146229 -0.200919
28 1 21.3242 0.00363804 -1.12178
29 1 20.9399 0.882931 -0.838177
30 1 20.8489 1.53753 -0.0596224
31 1 20.2572 1.10705 1.04084
32 1 19.7983 0.220784 1.06034
33 1 20.7229 -0.0550987 1.09241
34 1 20.498 -1.14804 1.29953
35 1 21.3524 -1.57536 1.09604
36 1 22.2828 -1.62295 0.149374
37 1 22.596 -0.755906 0.728178
38 1 22.8389 -0.309472 1.36686
39 1 22.7384 0.614735 1.04018
40 1 22.9523 0.243687 0.0330475
41 1 22.7648 1.42363 -0.0268193
42 1 22.4773 2.12071 -0.425901
43 1 21.5386 2.46985 -0.50693
44 1 20.9682 2.17678 -1.2097
45 1 21.9304 2.41001 -1.64156
46 1 21.3707 1.64827 -2.15589
47 1 21.8386 1.32266 -1.42074
48 1 22.4388 1.41168 -1.67602
49 1 23.6799 1.72004 -1.44758
50 1 23.8829 1.89559 -2.46188
ITEM: TIMESTEP
7000
ITEM: NUMBER OF ATOMS
50
ITEM: BOX BOUNDS pp pp pp
-5.0000000000000000e+01 5.0000000000000000e+01
-5.0000000000000000e+01 5.0000000000000000e+01
-5.0000000000000000e+01 5.0000000000000000e+01
ITEM: ATOMS id type x y z
1 1 21.471 1.27253 -1.08574
2 1 21.5988 0.251669 -1.34996
3 1 21.4116 0.608226 -2.00024
4 1 21.6309 0.998727 -2.91989
5 1 22.1294 0.0618408 -2.52015
6 1 22.9855 0.13373 -2.53479
7 1 23.3357 0.0946987 -1.71899
8 1 23.6275 0.687407 -1.16731
9 1 24.2479 0.599348 -2.19131
10 1 24.246 -0.341641 -1.522
11 1 23.6021 -0.257255 -0.614608
12 1 23.7348 0.419364 -0.0730264
13 1 23.1227 0.956881 0.67274
14 1 22.8472 0.266326 1.3697
15 1 22.0927 -0.382539 0.987177
16 1 21.8883 0.577116 0.88593
17 1 21.3508 0.868144 0.0306797
18 1 22.4661 0.7695 -0.236072
19 1 22.9252 -0.125514 0.254581
20 1 23.718 -0.348179 0.910635
21 1 23.032 -1.06739 1.04536
22 1 23.8031 -1.61748 0.721685
23 1 23.344 -1.72099 -0.383012
24 1 22.5948 -1.59425 0.198583
25 1 21.6366 -1.61976 0.368629
26 1 22.1236 -0.72337 0.0755899
27 1 22.2699 -0.259556 -0.557375
28 1 22.6924 -0.999936 -0.936874
29 1 22.0784 -0.682774 -1.7306
30 1 21.4418 -1.24925 -1.82421
31 1 21.5969 -1.2573 -0.724949
32 1 21.0683 -0.615932 -0.807708
33 1 20.6468 -0.735387 0.185113
34 1 20.0244 -0.816443 0.769578
35 1 19.2596 -0.581773 -0.088048
36 1 19.9641 -0.600712 -0.896062
37 1 20.373 0.297416 -0.248056
38 1 20.3625 1.11963 -0.81868
39 1 20.4651 1.24861 0.313668
40 1 19.9542 1.4104 1.14268
41 1 20.4871 0.59857 1.48272
42 1 20.8499 0.0763772 0.923039
43 1 21.2728 0.105312 1.99012
44 1 20.9825 -0.449072 2.83378
45 1 21.9926 -0.641753 2.00803
46 1 22.0494 -0.216282 2.73016
47 1 22.1827 0.720761 2.06414
48 1 22.5087 1.61365 1.6972
49 1 23.359 1.24419 1.95591
50 1 23.6515 1.90412 1.33221
ITEM: TIMESTEP
8000
ITEM: NUMBER OF ATOMS
50
ITEM: BOX BOUNDS pp pp pp
-5.0000000000000000e+01 5.0000000000000000e+01
-5.0000000000000000e+01 5.0000000000000000e+01
-5.0000000000000000e+01 5.0000000000000000e+01
ITEM: ATOMS id type x y z
1 1 23.7037 1.67813 -0.41985
2 1 23.7458 0.696707 -0.0590974
3 1 23.5277 0.200031 -0.89809
4 1 23.2655 -0.316172 0.113191
5 1 22.6799 -0.502905 0.416029
6 1 22.9106 -1.44995 0.216532
7 1 23.2185 -0.990026 1.10331
8 1 23.1813 -0.935429 2.13324
9 1 23.8259 -0.623368 2.97626
10 1 22.7921 -0.268738 3.03049
11 1 22.9384 0.267679 2.50046
12 1 22.7215 0.742489 1.73852
13 1 21.9348 1.14482 1.20637
14 1 22.2071 0.385967 0.680485
15 1 21.079 0.548978 0.917985
16 1 21.4314 0.904097 0.147356
17 1 21.7513 1.91288 0.335057
18 1 22.6393 2.16119 0.497589
19 1 23.1899 2.00401 1.38377
20 1 22.9318 1.13358 0.578785
21 1 23.15 0.131966 1.06045
22 1 22.4443 -0.456352 1.56846
23 1 22.1701 -1.2358 1.078
24 1 21.8301 -1.30565 0.209425
25 1 21.0281 -0.681208 0.466006
26 1 21.2446 -0.299224 0.0299122
27 1 21.0391 -1.03778 -0.723044
28 1 22.0171 -1.2508 -0.777479
29 1 23.0575 -1.00374 -0.872472
30 1 22.8289 -1.53106 -1.8259
31 1 21.8416 -1.74365 -1.80337
32 1 21.0298 -1.22166 -1.77174
33 1 21.5119 -0.184762 -1.56886
34 1 21.1132 0.392354 -2.61697
35 1 21.3138 -0.691935 -2.76554
36 1 22.2655 -1.19298 -2.79872
37 1 22.4449 -0.629722 -2.17323
38 1 22.239 0.201187 -2.14056
39 1 22.4337 0.205408 -1.16918
40 1 22.2788 -0.380301 -0.490131
41 1 22.5613 0.857367 -0.407323
42 1 22.4448 1.36817 -1.13966
43 1 21.4158 1.76321 -1.07531
44 1 21.5497 0.51727 -0.784212
45 1 20.6262 0.222303 -0.642706
46 1 20.344 0.625645 -0.0194959
47 1 19.4568 0.519027 0.506562
48 1 19.9734 0.380359 1.43549
49 1 19.9081 -0.692859 0.924842
50 1 19.2624 -0.338763 1.68835
ITEM: TIMESTEP
9000
ITEM: NUMBER OF ATOMS
50
ITEM: BOX BOUNDS pp pp pp
-5.0000000000000000e+01 5.0000000000000000e+01
-5.0000000000000000e+01 5.0000000000000000e+01
-5.0000000000000000e+01 5.0000000000000000e+01
ITEM: ATOMS id type x y z
1 1 20.9237 1.37035 1.14566
2 1 21.9012 1.322 1.12965
3 1 22.6471 0.641817 1.21659
4 1 21.9759 0.496308 2.08559
5 1 21.3614 -0.159079 2.13482
6 1 20.6837 -0.679388 1.81001
7 1 19.8479 -1.13906 1.66729
8 1 19.6627 -0.657248 0.745989
9 1 20.2132 -0.687534 0.241065
10 1 20.5494 -1.65221 -0.0910107
11 1 20.5486 -1.34158 -1.06264
12 1 21.5755 -1.26545 -1.48218
13 1 21.5786 -1.30723 -0.494558
14 1 20.9289 -0.221895 -0.561729
15 1 21.4112 -0.145092 0.0568221
16 1 21.2754 0.777842 0.112353
17 1 21.4211 1.57696 0.117708
18 1 20.4034 1.75525 0.146613
19 1 20.7046 1.10009 -0.699734
20 1 20.3237 0.40132 0.09316
21 1 20.7341 0.256087 1.07546
22 1 21.5897 0.257005 1.01401
23 1 21.3721 -0.749223 1.0544
24 1 21.8869 -1.00465 0.460768
25 1 21.4352 -1.75367 0.774377
26 1 21.4871 -2.37282 -0.0682787
27 1 22.2035 -2.33542 0.683444
28 1 22.7732 -1.62592 0.360917
29 1 22.6046 -0.973055 -0.532445
30 1 21.92 -0.372618 -1.02256
31 1 22.6063 -0.726119 -1.74377
32 1 23.1241 -1.59251 -1.33359
33 1 23.949 -1.42223 -1.45285
34 1 24.4367 -0.756306 -0.770319
35 1 23.5458 -1.11489 -0.198632
36 1 24.0157 -0.543238 0.671343
37 1 22.9799 -0.527756 0.493989
38 1 23.534 -0.0519488 -0.208706
39 1 22.904 -0.0384087 -0.951583
40 1 23.8626 -0.0910995 -1.3741
41 1 24.6237 0.381317 -0.97245
42 1 24.3249 1.30611 -0.596075
43 1 23.1321 1.17334 -0.847283
44 1 23.0577 1.00087 0.0753626
45 1 22.2622 0.642131 0.262115
46 1 22.1314 0.699961 -0.844599
47 1 22.3158 1.65972 -0.351485
48 1 22.175 2.61319 -0.483561
49 1 22.5821 3.45891 -0.855985
50 1 22.9934 4.41707 -0.629376
ITEM: TIMESTEP
10000
ITEM: NUMBER OF ATOMS
50
ITEM: BOX BOUNDS pp pp pp
-5.0000000000000000e+01 5.0000000000000000e+01
-5.0000000000000000e+01 5.0000000000000000e+01
-5.0000000000000000e+01 5.0000000000000000e+01
ITEM: ATOMS id type x y z
1 1 21.3879 0.490998 -1.86555
2 1 21.0215 0.263903 -1.04678
3 1 20.1557 -0.332066 -0.96945
4 1 20.523 0.184811 -0.0801488
5 1 21.2502 -0.454721 -0.306823
6 1 20.8554 -1.24878 -0.241185
7 1 21.2764 -1.38345 -1.02426
8 1 21.953 -1.31884 -1.66778
9 1 21.4118 -0.73924 -2.11168
10 1 22.0955 -0.224131 -1.31585
11 1 23.0214 -0.207389 -0.789621
12 1 23.0229 -1.02258 -1.25104
13 1 22.8508 -0.565199 -2.07713
14 1 22.5936 -0.577168 -3.08617
15 1 22.9846 0.30224 -2.55346
16 1 23.2207 1.49372 -2.43167
17 1 22.4366 1.67946 -1.91756
18 1 22.463 0.787252 -1.60319
19 1 22.489 0.872068 -0.799095
20 1 21.6155 1.28597 -0.747974
21 1 21.1474 1.35578 0.0832658
22 1 21.8022 0.512447 -0.05494
23 1 22.6343 0.466386 0.228429
24 1 22.3609 -0.369489 0.0865239
25 1 22.2053 -1.03107 -0.547405
26 1 22.7634 -1.55219 -0.363467
27 1 21.7338 -1.66846 0.230361
28 1 22.1363 -1.13878 0.639559
29 1 22.6598 -0.765273 1.20178
30 1 22.3089 -1.42965 1.66983
31 1 21.8809 -0.824918 1.97631
32 1 22.4839 -0.00250767 1.85262
33 1 22.7863 0.32831 2.63083
34 1 22.0149 0.0351942 3.26467
35 1 21.2304 -0.534123 3.70763
36 1 21.2592 -0.989503 2.89182
37 1 22.0504 -1.61232 2.6342
38 1 21.4354 -2.32464 2.08691
39 1 21.2084 -1.51509 1.58578
40 1 20.8743 -0.935289 0.934451
41 1 20.9247 -0.43575 1.86099
42 1 21.1568 0.454626 1.58353
43 1 22.0531 0.784865 1.04923
44 1 22.4557 1.48204 0.276368
45 1 23.3611 1.19689 -0.100056
46 1 23.4919 1.11215 -1.26116
47 1 23.4764 1.9673 -1.30463
48 1 23.186 2.30166 -0.232647
49 1 22.2441 2.58838 -0.0749545
50 1 22.5453 3.25615 -0.649423
ITEM: TIMESTEP
11000
ITEM: NUMBER OF ATOMS
50
ITEM: BOX BOUNDS pp pp pp
-5.0000000000000000e+01 5.0000000000000000e+01
-5.0000000000000000e+01 5.0000000000000000e+01
-5.0000000000000000e+01 5.0000000000000000e+01
ITEM: ATOMS id type x y z
1 1 22.7996 0.980924 -0.866497
2 1 23.6244 0.981841 -0.976774
3 1 23.2331 0.198153 -1.47831
4 1 22.7062 -0.539197 -1.86294
5 1 21.9207 -0.575759 -1.89715
6 1 21.9124 -1.40809 -1.31927
7 1 22.1256 -2.01475 -0.703891
8 1 22.1691 -1.22325 -0.149825
9 1 22.9309 -1.34796 -0.939774
10 1 23.5838 -0.72861 -1.31205
11 1 23.9323 -0.145519 -0.616124
12 1 25.105 -0.600124 -0.910929
13 1 24.5642 0.0822369 -1.42548
14 1 24.629 0.805607 -0.491307
15 1 24.2994 1.4031 0.190859
16 1 23.9977 0.409318 0.403875
17 1 23.2026 0.652254 0.0945401
18 1 22.7667 -0.257366 0.22814
19 1 22.3666 0.0841562 -0.290692
20 1 21.689 -0.477221 -0.758486
21 1 21.1559 -1.3093 -0.547346
22 1 21.3974 -0.757519 0.314807
23 1 21.3647 0.0526373 0.172694
24 1 22.124 0.753046 0.607407
25 1 22.5309 0.849009 1.15444
26 1 22.815 -0.13092 1.6825
27 1 21.8492 -0.591228 1.79625
28 1 21.5979 -1.03651 2.48824
29 1 20.9759 -0.77689 3.33528
30 1 20.4711 -0.0524573 2.68942
31 1 20.634 -0.639198 2.10673
32 1 21.0437 -1.26581 1.25625
33 1 20.2242 -1.14269 0.723711
34 1 19.8304 -1.40217 1.64079
35 1 19.1063 -1.43557 0.933379
36 1 19.1793 -0.586867 0.49178
37 1 20.0822 -0.0831692 0.647316
38 1 20.0132 -0.671021 -0.39456
39 1 20.5226 -0.343587 -0.88435
40 1 20.8457 0.520876 -1.36732
41 1 21.4714 0.560336 -2.21786
42 1 21.9975 0.943188 -1.79741
43 1 22.1523 0.225555 -1.30512
44 1 21.6501 0.779155 -0.6019
45 1 21.9177 1.66982 -0.78492
46 1 22.729 1.64223 -0.0509972
47 1 23.4335 1.81081 0.699067
48 1 22.5299 2.37071 1.1512
49 1 21.7447 1.76824 1.04135
50 1 21.5524 1.99953 0.101241
ITEM: TIMESTEP
12000
ITEM: NUMBER OF ATOMS
50
ITEM: BOX BOUNDS pp pp pp
-5.0000000000000000e+01 5.0000000000000000e+01
-5.0000000000000000e+01 5.0000000000000000e+01
-5.0000000000000000e+01 5.0000000000000000e+01
ITEM: ATOMS id type x y z
1 1 22.0935 0.242243 2.11796
2 1 22.2128 -0.0197549 1.02407
3 1 21.7493 -0.811772 0.493125
4 1 22.5422 -0.044854 -0.318524
5 1 22.9078 -0.336473 0.454418
6 1 23.4365 -1.09528 0.0175857
7 1 23.2119 -2.00237 -0.227051
8 1 23.7781 -2.51963 0.105395
9 1 23.3089 -2.09503 0.927285
10 1 22.5346 -1.52034 0.637733
11 1 22.2113 -1.98203 1.59559
12 1 22.5312 -1.02757 1.63906
13 1 21.5989 -0.603225 1.69526
14 1 20.9971 0.230609 1.55114
15 1 21.249 0.71532 0.678174
16 1 20.875 1.48529 1.04731
17 1 21.5882 1.37515 1.8826
18 1 22.363 1.45795 1.27508
19 1 21.9384 1.85464 0.346292
20 1 21.4592 1.54001 0.0201866
21 1 21.5735 0.82338 -0.424706
22 1 21.8057 0.633063 -1.16128
23 1 22.0604 1.48664 -1.95163
24 1 21.0964 0.896115 -1.8642
25 1 20.5711 0.781803 -0.969535
26 1 20.0275 1.34204 -0.583711
27 1 20.166 1.091 0.344122
28 1 20.7856 0.238305 -0.0292451
29 1 20.0919 -0.105254 0.232448
30 1 20.823 -0.857497 -0.0293659
31 1 20.073 -0.762646 -0.587496
32 1 20.8882 -1.06771 -1.04221
33 1 21.6845 -0.522945 -1.20569
34 1 22.1312 -1.26041 -1.58198
35 1 21.6982 -2.22041 -2.18149
36 1 21.3777 -2.07824 -1.19163
37 1 22.2558 -2.19538 -1.05961
38 1 21.947 -1.38987 -0.511896
39 1 22.8565 -1.33117 -0.858547
40 1 23.0604 -0.610653 -1.57364
41 1 22.9165 0.348095 -2.04391
42 1 23.3161 0.566531 -1.3098
43 1 23.6057 0.693649 -0.468931
44 1 22.7631 1.21011 -0.669769
45 1 23.25 1.76471 -0.119849
46 1 22.7145 0.939286 0.274581
47 1 23.2521 0.649032 0.861915
48 1 23.535 1.60585 1.34305
49 1 23.142 2.05731 1.90798
50 1 22.4444 2.43238 1.49333
ITEM: TIMESTEP
13000
ITEM: NUMBER OF ATOMS
50
ITEM: BOX BOUNDS pp pp pp
-5.0000000000000000e+01 5.0000000000000000e+01
-5.0000000000000000e+01 5.0000000000000000e+01
-5.0000000000000000e+01 5.0000000000000000e+01
ITEM: ATOMS id type x y z
1 1 21.394 0.10154 0.0601644
2 1 21.7837 -0.524735 -0.531399
3 1 21.8923 -0.893363 -1.41773
4 1 20.9953 -0.504138 -2.0202
5 1 21.473 -1.52097 -2.3317
6 1 21.8056 -2.00277 -1.50561
7 1 21.1514 -1.72747 -0.862148
8 1 20.8087 -0.745927 -0.325705
9 1 20.5941 -0.814253 -1.05605
10 1 20.0369 -0.244288 -1.65
11 1 20.926 0.167952 -0.994774
12 1 20.7498 0.814506 -1.68869
13 1 19.8996 0.881872 -1.15833
14 1 19.8487 0.991492 -0.224926
15 1 20.5013 0.713039 0.531415
16 1 20.6025 1.38192 1.2938
17 1 21.4106 0.918948 0.802664
18 1 21.5806 1.12084 -0.201473
19 1 22.1843 1.81925 0.589377
20 1 22.4102 1.08469 0.859461
21 1 22.6951 0.612528 0.138502
22 1 22.9285 1.38187 -0.433507
23 1 23.211 1.80616 0.430457
24 1 23.9042 0.820625 0.469026
25 1 23.5753 -0.0645339 0.419221
26 1 23.8039 0.230315 -0.449431
27 1 23.7333 -0.519684 -0.599134
28 1 22.8771 -0.132082 -0.748711
29 1 22.8101 -1.1825 -0.787651
30 1 23.0464 -0.814601 -1.71156
31 1 23.7837 -1.39239 -1.41881
32 1 24.5083 -1.14367 -0.813856
33 1 23.8633 -1.5996 -0.00337404
34 1 23.4551 -1.23902 0.960554
35 1 22.5066 -1.44897 1.08303
36 1 23.1288 -2.22909 1.08459
37 1 22.2093 -2.3969 0.546414
38 1 22.3083 -1.91827 -0.288505
39 1 21.5194 -1.24957 0.329716
40 1 22.6674 -0.722019 0.144871
41 1 22.0637 -0.285931 0.786611
42 1 22.4173 -0.0500217 1.66378
43 1 23.2748 0.64319 1.39324
44 1 22.9184 1.35188 1.82068
45 1 22.2618 0.951238 2.50891
46 1 21.8788 1.3146 1.81096
47 1 21.376 2.3126 1.74026
48 1 21.2338 2.1533 0.859866
49 1 20.5697 1.8528 0.182109
50 1 19.922 1.93961 0.713591
ITEM: TIMESTEP
14000
ITEM: NUMBER OF ATOMS
50
ITEM: BOX BOUNDS pp pp pp
-5.0000000000000000e+01 5.0000000000000000e+01
-5.0000000000000000e+01 5.0000000000000000e+01
-5.0000000000000000e+01 5.0000000000000000e+01
ITEM: ATOMS id type x y z
1 1 23.1277 0.137788 0.0582058
2 1 23.1268 -0.293112 -0.74669
3 1 22.1889 -0.53939 -1.2512
4 1 22.4495 -1.09862 -0.428325
5 1 23.458 -1.1503 -0.260413
6 1 23.8664 -1.28941 0.646239
7 1 23.9901 -0.470803 1.03105
8 1 24.6885 -0.440319 0.518549
9 1 24.1449 0.00454734 -0.0403861
10 1 24.2309 -0.654512 -1.37191
11 1 23.9404 0.248306 -1.49204
12 1 24.5214 0.781408 -1.98358
13 1 24.1124 1.5675 -1.36661
14 1 23.9111 0.855525 -0.449539
15 1 22.9156 0.820819 -0.889638
16 1 21.8366 0.469787 -0.749607
17 1 21.8255 0.8524 -1.53345
18 1 21.2457 0.0653492 -1.60958
19 1 20.6083 0.232289 -0.721364
20 1 20.2655 1.22337 -0.751445
21 1 21.1986 1.43672 -0.659676
22 1 22.046 1.24299 0.184466
23 1 22.9676 1.09719 0.182547
24 1 23.5188 0.979058 0.678228
25 1 23.4216 0.451848 1.30529
26 1 22.7062 1.12657 1.42662
27 1 22.2454 0.424411 0.933962
28 1 22.0846 -0.233401 0.37984
29 1 22.9305 -0.567585 0.931387
30 1 22.8993 -1.34041 1.29775
31 1 22.175 -1.4657 0.775518
32 1 21.4913 -1.1083 1.56863
33 1 21.3855 -0.393019 1.09597
34 1 21.2247 -1.06093 0.398918
35 1 20.4195 -0.888951 -0.225349
36 1 19.805 -0.621649 -1.31654
37 1 20.6155 -0.890494 -1.84996
38 1 20.6001 -1.6942 -1.09243
39 1 21.602 -1.55159 -1.18262
40 1 21.4487 -0.487584 -0.481907
41 1 21.2051 0.290134 0.222833
42 1 21.5459 1.19372 1.04369
43 1 20.9613 1.34292 0.490502
44 1 20.5896 0.652028 0.987033
45 1 20.8835 0.570856 1.91532
46 1 20.1626 -0.0993334 1.62711
47 1 20.2589 -0.954476 1.19728
48 1 20.232 -0.158337 0.565436
49 1 20.0594 0.665066 0.109756
50 1 19.3614 0.719825 0.882136
ITEM: TIMESTEP
15000
ITEM: NUMBER OF ATOMS
50
ITEM: BOX BOUNDS pp pp pp
-5.0000000000000000e+01 5.0000000000000000e+01
-5.0000000000000000e+01 5.0000000000000000e+01
-5.0000000000000000e+01 5.0000000000000000e+01
ITEM: ATOMS id type x y z
1 1 24.1126 -0.860117 1.19712
2 1 23.4013 -1.55058 0.940759
3 1 23.1295 -0.932043 1.60875
4 1 22.3791 -0.403257 1.76192
5 1 22.9909 -0.282337 2.41661
6 1 22.9231 0.646043 2.97372
7 1 22.1625 0.588727 2.44741
8 1 21.1711 0.299682 2.1839
9 1 21.3712 0.834418 1.38965
10 1 22.0637 1.22093 1.18158
11 1 22.4769 0.34301 0.994325
12 1 22.7559 0.505236 1.39813
13 1 23.7308 0.0879268 1.51045
14 1 23.6006 0.546596 0.715361
15 1 23.143 -0.483576 0.610367
16 1 23.1943 -0.567248 -0.399339
17 1 22.9182 0.324644 -0.167253
18 1 23.8738 0.399866 -0.81897
19 1 23.7838 0.792313 -1.80686
20 1 22.6819 0.910597 -1.81196
21 1 22.7915 1.17026 -0.809424
22 1 22.6702 1.41895 0.20974
23 1 22.0925 0.867066 0.142665
24 1 21.6106 0.366665 -0.406747
25 1 21.0647 0.60276 0.264685
26 1 21.5727 -0.182201 1.06292
27 1 21.4331 -0.972234 0.161839
28 1 22.1865 -0.38264 0.162835
29 1 22.2752 -1.29768 0.989333
30 1 21.7889 -1.90769 1.18795
31 1 22.345 -2.20655 0.498126
32 1 22.9266 -1.89929 0.0350135
33 1 22.1276 -1.88168 -0.641667
34 1 22.2084 -1.20884 -0.60017
35 1 21.3921 -0.940542 -0.910938
36 1 21.6592 -0.867294 -1.86217
37 1 22.3552 -1.48352 -1.98808
38 1 22.7267 -0.759384 -1.33934
39 1 22.124 -0.222766 -1.07207
40 1 21.2456 0.0572739 -1.36301
41 1 20.9325 0.97923 -0.950696
42 1 21.4854 1.68111 -0.739532
43 1 20.6434 1.98956 -1.35482
44 1 19.9028 1.48821 -0.806113
45 1 20.265 0.437086 -0.433253
46 1 20.7461 -0.303075 -0.517399
47 1 20.1555 -0.70064 -1.35075
48 1 20.028 0.397957 -1.498
49 1 19.8831 1.2955 -1.98582
50 1 19.9975 2.04356 -2.41077
ITEM: TIMESTEP
16000
ITEM: NUMBER OF ATOMS
50
ITEM: BOX BOUNDS pp pp pp
-5.0000000000000000e+01 5.0000000000000000e+01
-5.0000000000000000e+01 5.0000000000000000e+01
-5.0000000000000000e+01 5.0000000000000000e+01
ITEM: ATOMS id type x y z
1 1 18.8424 -0.571899 0.496962
2 1 19.4311 -0.623635 1.45173
3 1 19.6517 0.37902 1.67202
4 1 19.4991 0.475797 0.636026
5 1 19.5976 0.567822 -0.268473
6 1 19.5514 1.62094 -0.697326
7 1 19.9416 1.19023 -1.41905
8 1 20.507 0.55994 -1.61519
9 1 21.3414 0.650645 -1.87085
10 1 21.2716 0.75917 -0.838144
11 1 21.0668 0.998281 0.20072
12 1 20.6939 0.334237 0.975595
13 1 21.6722 -0.254259 1.31683
14 1 22.5086 -0.0346748 1.39262
15 1 23.3582 -0.136665 1.81567
16 1 24.2072 0.674848 1.634
17 1 23.4809 1.06141 0.929498
18 1 22.7018 1.22549 1.73421
19 1 21.7136 1.02513 1.38911
20 1 22.1796 1.13233 0.682497
21 1 21.9441 0.251754 0.427399
22 1 21.8802 -0.0142489 -0.514587
23 1 20.923 -0.287319 -1.06659
24 1 21.697 -0.74971 -1.55974
25 1 22.2729 -1.63333 -1.24281
26 1 21.6458 -1.17105 -0.497701
27 1 20.867 -0.399413 0.134823
28 1 20.6596 -0.87359 0.74762
29 1 21.1825 -1.60762 0.587824
30 1 21.7061 -2.2005 -0.055051
31 1 22.3794 -1.77055 0.579023
32 1 22.5936 -0.797698 0.0479559
33 1 23.0118 -0.989326 1.08285
34 1 23.6789 -1.40803 0.325576
35 1 24.7227 -1.86129 0.138181
36 1 24.2873 -1.66227 -0.562778
37 1 23.3944 -1.26549 -0.845886
38 1 24.1311 -0.6143 -0.899982
39 1 23.8636 -0.470627 0.145788
40 1 23.0646 0.165261 0.485566
41 1 22.7798 0.799276 -0.0255606
42 1 22.2258 1.10945 -0.538497
43 1 22.9373 1.4099 -1.03874
44 1 22.7403 0.729467 -1.45305
45 1 23.2694 0.188242 -1.84024
46 1 22.627 -0.500613 -1.14981
47 1 23.1798 -0.14661 -0.635803
48 1 23.6507 0.905162 -0.494525
49 1 23.4294 1.78082 0.0751184
50 1 22.5374 2.05008 0.0251709
ITEM: TIMESTEP
17000
ITEM: NUMBER OF ATOMS
50
ITEM: BOX BOUNDS pp pp pp
-5.0000000000000000e+01 5.0000000000000000e+01
-5.0000000000000000e+01 5.0000000000000000e+01
-5.0000000000000000e+01 5.0000000000000000e+01
ITEM: ATOMS id type x y z
1 1 23.0232 1.32812 -2.54394
2 1 23.3695 0.704259 -1.6436
3 1 22.9403 -0.0334587 -1.88217
4 1 22.0253 -0.273548 -2.3924
5 1 21.2203 -0.257366 -2.16363
6 1 20.8103 0.422679 -2.80694
7 1 20.905 1.02979 -2.3025
8 1 20.5394 0.509141 -1.73407