ITEM: TIMESTEP
0
ITEM: NUMBER OF ATOMS
50
ITEM: BOX BOUNDS pp pp pp
-5.0000000000000000e+01 5.0000000000000000e+01
-5.0000000000000000e+01 5.0000000000000000e+01
-5.0000000000000000e+01 5.0000000000000000e+01
ITEM: ATOMS id type x y z
1 1 -2.36027 0 0
2 1 -1.36159 0 0
3 1 -0.364215 0 0
4 1 0.633031 0 0
5 1 1.63016 0 0
6 1 2.62717 0 0
7 1 3.62407 0 0
8 1 4.62085 0 0
9 1 5.61751 0 0
10 1 6.61405 0 0
11 1 7.61048 0 0
12 1 8.60679 0 0
13 1 9.60299 0 0
14 1 10.5991 0 0
15 1 11.595 0 0
16 1 12.5909 0 0
17 1 13.5866 0 0
18 1 14.5822 0 0
19 1 15.5777 0 0
20 1 16.5731 0 0
21 1 17.5681 0 0
22 1 18.5641 0 0
23 1 19.56 0 0
24 1 20.5561 0 0
25 1 21.5521 0 0
26 1 22.5479 0 0
27 1 23.5439 0 0
28 1 24.54 0 0
29 1 25.5359 0 0
30 1 26.5319 0 0
31 1 27.5269 0 0
32 1 28.5223 0 0
33 1 29.5178 0 0
34 1 30.5134 0 0
35 1 31.5091 0 0
36 1 32.505 0 0
37 1 33.5009 0 0
38 1 34.497 0 0
39 1 35.4932 0 0
40 1 36.4895 0 0
41 1 37.4859 0 0
42 1 38.4825 0 0
43 1 39.4792 0 0
44 1 40.4759 0 0
45 1 41.4728 0 0
46 1 42.4698 0 0
47 1 43.467 0 0
48 1 44.4642 0 0
49 1 45.4616 0 0
50 1 46.4603 0 0
ITEM: TIMESTEP
1000
ITEM: NUMBER OF ATOMS
50
ITEM: BOX BOUNDS pp pp pp
-5.0000000000000000e+01 5.0000000000000000e+01
-5.0000000000000000e+01 5.0000000000000000e+01
-5.0000000000000000e+01 5.0000000000000000e+01
ITEM: ATOMS id type x y z
1 1 8.19901 0.0359565 1.04347
2 1 7.87333 0.890274 0.526923
3 1 8.83264 1.05853 -0.0778796
4 1 9.37789 1.4019 0.81027
5 1 9.724 1.87447 0.0583719
6 1 10.0691 1.05574 -0.0404901
7 1 9.54923 0.350578 -0.34719
8 1 9.69791 0.280006 0.610752
9 1 10.5731 -0.0129628 0.0293327
10 1 11.2387 0.797279 0.00271712
11 1 11.042 0.384217 -0.962827
12 1 11.5058 -0.261316 -0.465545
13 1 12.4081 -0.120282 -0.776302
14 1 12.9057 -0.739408 -1.38708
15 1 13.4143 -0.663882 -0.506521
16 1 14.313 -0.319647 -0.386579
17 1 15.1648 -0.198069 -0.798411
18 1 16.0471 -0.508693 -0.344225
19 1 17.0225 -0.231445 -0.508287
20 1 17.9223 -0.537592 -0.0888282
21 1 18.8075 -0.36545 -0.585178
22 1 19.0832 -0.547054 0.372222
23 1 19.6547 -1.12481 -0.185461
24 1 20.4141 -1.21592 0.383939
25 1 21.2062 -1.50178 0.799903
26 1 21.324 -1.29975 -0.1593
27 1 22.3516 -1.53072 -0.133661
28 1 23.3378 -1.31433 -0.522282
29 1 24.0914 -1.61903 -1.10675
30 1 24.9263 -1.08976 -1.26617
31 1 25.9581 -1.1791 -1.30968
32 1 26.9633 -0.913477 -1.33454
33 1 27.8279 -0.583996 -1.36908
34 1 28.7135 -0.18819 -1.14835
35 1 29.5703 0.0498153 -0.718447
36 1 30.192 0.853423 -0.566537
37 1 30.76 0.450117 0.152323
38 1 31.4854 -0.0068652 -0.182376
39 1 31.5036 0.955402 -0.492525
40 1 32.389 0.964721 0.0526573
41 1 33.3857 0.64855 0.0348969
42 1 34.2547 0.301496 0.437921
43 1 35.1252 0.0858498 0.801161
44 1 35.0411 1.1102 0.943953
45 1 35.7497 1.48178 1.60664
46 1 36.1614 1.17351 0.551876
47 1 35.9464 0.548615 1.29979
48 1 36.7698 0.82845 1.66594
49 1 36.1422 0.237856 2.36631
50 1 36.4833 0.254789 3.21913
ITEM: TIMESTEP
2000
ITEM: NUMBER OF ATOMS
50
ITEM: BOX BOUNDS pp pp pp
-5.0000000000000000e+01 5.0000000000000000e+01
-5.0000000000000000e+01 5.0000000000000000e+01
-5.0000000000000000e+01 5.0000000000000000e+01
ITEM: ATOMS id type x y z
1 1 20.7562 -0.392991 0.999797
2 1 21.1997 0.429673 1.11701
3 1 20.9043 0.422722 0.0410473
4 1 20.5446 1.1777 0.342246
5 1 20.4671 1.11346 -0.676317
6 1 20.2771 1.18888 -1.64288
7 1 19.5866 0.98092 -1.03347
8 1 19.5853 1.30542 0.0323541
9 1 18.8457 0.997512 0.580054
10 1 19.1099 0.290286 -0.0362503
11 1 19.8728 0.0571178 -0.503235
12 1 19.5802 -0.342199 -1.43833
13 1 18.6723 -0.236398 -0.850683
14 1 18.3212 -0.631816 0.0830255
15 1 19.1246 -0.401545 0.64759
16 1 19.8785 0.231828 0.610666
17 1 19.9759 -0.782296 0.280264
18 1 19.4558 -0.891896 -0.596311
19 1 20.1307 -1.60102 -0.718311
20 1 20.7916 -0.788975 -0.43956
21 1 21.1093 -0.0548092 -1.06172
22 1 21.8321 -0.356725 -0.162885
23 1 21.9657 -1.37178 -0.660666
24 1 21.1553 -1.19778 -1.35225
25 1 21.4243 -1.7119 -2.20089
26 1 21.4865 -0.717503 -2.37206
27 1 22.0905 -0.395888 -1.65038
28 1 23.087 0.0628676 -1.68072
29 1 22.7783 0.69332 -0.891729
30 1 23.4171 -0.0128576 -0.696434
31 1 23.6499 -0.839368 -1.4221
32 1 23.936 -1.05429 -0.457753
33 1 24.4656 -0.502299 0.111008
34 1 24.9767 -1.06627 0.781318
35 1 25.1395 -1.81254 0.112693
36 1 25.0167 -1.07585 -0.476189
37 1 25.7167 -0.377991 -0.351303
38 1 24.9686 0.268143 -0.356728
39 1 24.8612 0.929575 0.329268
40 1 23.8213 1.25747 0.105297
41 1 23.5905 0.240274 0.529761
42 1 23.983 -0.519695 1.098
43 1 24.6281 0.11689 0.973032
44 1 24.2176 0.0979544 1.92267
45 1 23.696 0.867934 1.49906
46 1 24.55 1.06689 1.57194
47 1 24.4665 1.59638 2.39371
48 1 23.8009 1.2059 2.93632
49 1 23.1493 1.59955 2.44799
50 1 22.4398 0.938 2.18304
ITEM: TIMESTEP
3000
ITEM: NUMBER OF ATOMS
50
ITEM: BOX BOUNDS pp pp pp
-5.0000000000000000e+01 5.0000000000000000e+01
-5.0000000000000000e+01 5.0000000000000000e+01
-5.0000000000000000e+01 5.0000000000000000e+01
ITEM: ATOMS id type x y z
1 1 23.2183 1.97262 1.67389
2 1 22.8915 2.25022 0.867235
3 1 22.7913 2.53108 0.0222819
4 1 22.207 1.77044 0.263686
5 1 22.2971 1.2009 0.849001
6 1 23.3909 1.11737 0.4585
7 1 24.154 0.397725 0.250125
8 1 23.3534 0.433738 -0.421498
9 1 22.3163 0.704738 -0.165136
10 1 22.111 1.53014 -0.905462
11 1 21.396 0.781457 -0.689522
12 1 20.9959 -0.0363525 -1.06542
13 1 21.8987 0.0726322 -1.36422
14 1 21.3481 0.793418 -1.97499
15 1 21.0351 -0.0892716 -2.21363
16 1 20.9844 -1.0354 -1.88653
17 1 20.8981 -1.61932 -1.14803
18 1 21.7116 -1.96943 -1.3935
19 1 22.5893 -1.897 -1.02104
20 1 23.3491 -1.33903 -0.727929
21 1 23.8568 -0.24272 -0.924405
22 1 23.0187 -0.41562 -1.54655
23 1 23.0524 -0.836036 -2.36137
24 1 22.2894 -1.09574 -1.9132
25 1 22.1983 -0.925141 -0.952851
26 1 21.9686 -0.253675 -0.277045
27 1 22.9538 -0.42629 -0.26306
28 1 22.8635 0.16976 0.541003
29 1 23.4859 -0.360084 0.770114
30 1 24.1827 -0.646406 0.413829
31 1 24.4978 -0.747706 1.32067
32 1 24.4174 -1.7207 1.26828
33 1 23.672 -1.88779 1.63593
34 1 22.8552 -2.22572 0.983552
35 1 22.5488 -1.26156 0.99009
36 1 21.6932 -0.711277 0.789251
37 1 21.9499 -1.02293 1.72819
38 1 22.7558 -1.18844 2.12304
39 1 23.2535 -0.3227 2.04662
40 1 22.3424 0.18596 1.56635
41 1 21.6808 0.631666 2.03879
42 1 21.2923 1.43767 1.44424
43 1 21.2968 1.30806 0.349219
44 1 21.0415 1.84469 -0.371652
45 1 20.0395 2.23825 -0.604694
46 1 19.9836 1.59923 -0.0304776
47 1 19.0796 0.820107 0.0949256
48 1 18.1357 0.514379 -0.163404
49 1 17.7892 -0.497287 -0.0857218
50 1 17.3676 -1.53263 -0.0174679
ITEM: TIMESTEP
4000
ITEM: NUMBER OF ATOMS
50
ITEM: BOX BOUNDS pp pp pp
-5.0000000000000000e+01 5.0000000000000000e+01
-5.0000000000000000e+01 5.0000000000000000e+01
-5.0000000000000000e+01 5.0000000000000000e+01
ITEM: ATOMS id type x y z
1 1 20.2614 1.14048 -0.790939
2 1 20.2143 0.41093 -0.103221
3 1 20.9253 -0.334482 -0.453206
4 1 21.2725 0.573423 -0.236219
5 1 21.8505 0.707103 0.562199
6 1 21.6318 0.839015 1.59262
7 1 21.3482 1.64872 1.00516
8 1 21.9423 2.27435 0.543395
9 1 21.6391 2.86079 -0.250695
10 1 22.2759 2.93157 -0.886524
11 1 22.4668 1.98424 -0.831433
12 1 22.2185 1.43451 -0.0895798
13 1 23.0129 0.995187 -0.275443
14 1 23.1922 0.10167 -0.781032
15 1 22.5757 -0.295412 0.0156996
16 1 22.5036 -0.730267 -0.964315
17 1 22.6505 -1.69887 -0.790978
18 1 22.4095 -2.48669 -0.534545
19 1 22.0661 -2.45287 0.324634
20 1 21.6726 -1.83309 0.856575
21 1 22.702 -1.47507 0.880869
22 1 23.326 -0.857599 0.107521
23 1 23.9072 -0.434531 0.945604
24 1 23.5185 0.353152 0.384113
25 1 23.6455 1.35736 0.532042
26 1 22.8533 1.66444 1.13905
27 1 22.6548 1.298 2.11242
28 1 23.2373 0.500258 1.75483
29 1 22.8785 -0.446788 1.5536
30 1 22.0215 -1.06294 1.8738
31 1 21.2232 -0.994465 2.44356
32 1 20.7861 -1.49937 1.61331
33 1 20.5062 -0.533081 1.6339
34 1 21.0022 0.0179442 0.938928
35 1 21.8912 -0.231118 1.18744
36 1 21.6743 -0.869736 0.744999
37 1 22.053 -1.3393 -0.10824
38 1 21.1483 -1.31304 -0.0737508
39 1 21.4714 -2.14472 -0.462398
40 1 21.5566 -2.71939 -1.19713
41 1 20.8616 -2.09363 -1.30874
42 1 20.541 -1.0295 -1.32065
43 1 21.4305 -1.00394 -1.92713
44 1 21.528 -0.167966 -1.39032
45 1 21.4821 0.280449 -2.0395
46 1 21.9153 1.09094 -2.33376
47 1 22.1101 1.08451 -1.30343
48 1 22.6622 1.68967 -1.93869
49 1 23.4573 1.45421 -1.2708
50 1 24.3249 1.35494 -1.0836
ITEM: TIMESTEP
5000
ITEM: NUMBER OF ATOMS
50
ITEM: BOX BOUNDS pp pp pp
-5.0000000000000000e+01 5.0000000000000000e+01
-5.0000000000000000e+01 5.0000000000000000e+01
-5.0000000000000000e+01 5.0000000000000000e+01
ITEM: ATOMS id type x y z
1 1 21.3556 -0.255891 -2.03707
2 1 21.8714 0.0995122 -2.71692
3 1 22.8231 0.00250105 -2.12857
4 1 22.2809 0.355625 -1.32761
5 1 22.3381 1.01975 -1.89766
6 1 21.4969 1.68413 -1.74131
7 1 21.2463 0.783208 -1.51812
8 1 21.4231 1.34237 -0.585288
9 1 21.4883 2.37623 -0.263248
10 1 22.0543 3.18828 -0.331299
11 1 22.3034 2.52283 0.410749
12 1 22.1988 1.57654 0.10623
13 1 22.8214 1.34722 0.774099
14 1 23.6326 1.21461 1.1807
15 1 23.638 1.3312 0.278417
16 1 23.4814 0.431575 -0.141753
17 1 22.6703 0.302574 -0.0415491
18 1 22.2733 -0.508347 0.155091
19 1 21.712 -1.2559 0.393505
20 1 21.2396 -0.435355 0.750161
21 1 20.9151 -0.542057 1.42326
22 1 21.1206 0.555332 1.50139
23 1 22.0867 0.841131 1.36094
24 1 21.6341 0.859261 0.618882
25 1 20.9025 0.639138 0.030533
26 1 20.1062 1.07769 -0.406714
27 1 19.2985 0.401223 -0.356057
28 1 19.9811 0.146732 0.399441
29 1 20.4789 -0.341896 0.00904413
30 1 19.8162 -0.942812 0.318142
31 1 20.3819 -1.40783 0.822427
32 1 20.7004 -1.29666 -0.13695
33 1 20.2928 -1.06981 -1.08866
34 1 20.3342 -0.0240413 -1.21336
35 1 21.2721 -0.46259 -0.915997
36 1 21.8646 -1.13682 -0.712573
37 1 21.1542 -1.85703 -1.12863
38 1 21.9322 -2.40057 -1.09627
39 1 22.5691 -1.72247 -1.16819
40 1 22.3783 -0.78664 -1.70987
41 1 22.9133 -0.727303 -0.645302
42 1 23.2605 -1.09357 0.0976845
43 1 23.937 -0.592694 0.426979
44 1 24.2551 0.317221 0.903366
45 1 24.0976 0.0100743 1.66725
46 1 24.2724 -1.04055 1.49009
47 1 24.674 -0.939714 2.49258
48 1 23.9647 -0.750593 3.1894
49 1 23.4557 -0.992647 2.42613
50 1 24.101 -1.84216 2.08248
ITEM: TIMESTEP
6000
ITEM: NUMBER OF ATOMS
50
ITEM: BOX BOUNDS pp pp pp
-5.0000000000000000e+01 5.0000000000000000e+01
-5.0000000000000000e+01 5.0000000000000000e+01
-5.0000000000000000e+01 5.0000000000000000e+01
ITEM: ATOMS id type x y z
1 1 23.7953 1.84329 -1.96279
2 1 24.2819 1.20533 -1.61178
3 1 23.9517 0.215301 -1.36382
4 1 23.1909 0.844088 -1.78695
5 1 22.3391 0.566979 -1.58072
6 1 22.3834 -0.199917 -0.790743
7 1 22.4597 0.929026 -0.487057
8 1 21.6673 1.26785 0.0308761
9 1 20.9779 1.45262 0.436727
10 1 20.7206 0.723015 1.17832
11 1 20.9015 0.307687 0.237523
12 1 20.7112 -0.316592 1.11824
13 1 21.6102 -0.219709 1.73329
14 1 21.7241 0.767069 1.93673
15 1 22.5256 0.386571 1.28217
16 1 21.8756 1.03721 0.981598
17 1 22.0186 0.28522 0.289464
18 1 21.562 -0.607876 0.542441
19 1 20.506 -0.554293 0.0924601
20 1 20.4527 -0.295183 -0.890983
21 1 20.0584 0.237171 -1.32016
22 1 20.0394 0.00849623 -2.26621
23 1 21.062 -0.460364 -2.20065
24 1 21.1334 -0.93262 -1.3942
25 1 21.4404 -0.78612 -0.583176
26 1 21.3835 0.23231 -0.858599
27 1 20.6101 0.923833 -0.867593
28 1 20.9821 0.615747 -1.81076
29 1 21.56 0.326393 -2.5566
30 1 22.0721 1.05535 -2.75685
31 1 22.6168 0.297401 -2.54507
32 1 22.1856 -0.472912 -1.97808
33 1 23.0648 -0.247969 -1.65245
34 1 23.4254 -0.861649 -1.07251
35 1 23.5888 -0.311034 -0.325261
36 1 24.4829 -0.472934 -0.0456984
37 1 24.2718 -1.42003 0.202521
38 1 23.2561 -1.2011 -0.0272946
39 1 22.7354 -1.77682 0.43456
40 1 22.5031 -2.00098 1.27766
41 1 22.9561 -1.089 1.3765
42 1 22.6605 -0.551734 0.528297
43 1 23.3414 -0.230329 1.19066
44 1 22.9849 -0.318629 2.21012
45 1 22.4134 0.184625 2.73467
46 1 22.4503 0.0467938 3.69678
47 1 21.3144 0.226105 3.8091
48 1 21.2794 -0.0117852 2.95804
49 1 20.7245 0.137866 2.0793
50 1 20.248 -0.78377 2.37796
ITEM: TIMESTEP
7000
ITEM: NUMBER OF ATOMS
50
ITEM: BOX BOUNDS pp pp pp
-5.0000000000000000e+01 5.0000000000000000e+01
-5.0000000000000000e+01 5.0000000000000000e+01
-5.0000000000000000e+01 5.0000000000000000e+01
ITEM: ATOMS id type x y z
1 1 22.3803 2.65101 2.40129
2 1 21.4056 3.09232 2.22996
3 1 21.8458 2.42727 1.58296
4 1 21.8164 1.31194 1.48154
5 1 21.4498 1.11871 0.531308
6 1 22.2252 0.743941 0.546456
7 1 22.9264 1.11754 0.0680281
8 1 23.6382 1.29117 -0.538949
9 1 22.721 0.91055 -0.917335
10 1 22.101 0.537765 -1.56602
11 1 21.9001 1.51799 -1.45288
12 1 22.6422 2.11641 -1.37158
13 1 22.3077 1.92622 -0.455907
14 1 21.3863 1.66577 -0.440495
15 1 20.8213 0.821982 -0.294937
16 1 21.8336 0.696602 -0.528799
17 1 21.2974 0.0234956 0.121884
18 1 21.0925 -0.970667 -0.343069
19 1 21.8199 -1.41143 -1.07921
20 1 21.6297 -0.459438 -1.64896
21 1 22.1007 -1.16172 -2.20493
22 1 22.1189 -2.11804 -1.83467
23 1 22.8357 -1.38436 -1.59361
24 1 22.885 -1.90444 -0.661176
25 1 23.5936 -1.12985 -0.537938
26 1 23.9463 -0.534171 -0.962039
27 1 22.922 -0.397239 -1.1509
28 1 23.5855 0.0339805 -1.80891
29 1 24.0626 0.574764 -1.45552
30 1 24.6313 0.142827 -0.82777
31 1 24.3261 -0.15558 0.1149
32 1 23.7354 0.566289 0.719223
33 1 23.1542 0.0218355 0.0726038
34 1 22.4869 -1.01672 -0.0536203
35 1 22.7637 -0.996721 1.07024
36 1 22.7906 -0.132158 1.48368
37 1 21.9182 -0.536025 1.47466
38 1 21.736 -0.902085 0.719341
39 1 20.9334 -1.10728 1.34245
40 1 21.5865 -1.76328 1.43002
41 1 21.8838 -2.60655 1.79854
42 1 21.7999 -2.60797 0.718374
43 1 21.4383 -1.85441 0.249483
44 1 20.626 -1.56501 0.378083
45 1 20.3713 -0.554908 0.551637
46 1 20.73 0.0200927 1.42198
47 1 20.363 0.762015 0.923523
48 1 19.636 0.180637 0.968205
49 1 19.6366 0.478277 -0.0962424
50 1 18.6623 0.518657 -0.574895
ITEM: TIMESTEP
8000
ITEM: NUMBER OF ATOMS
50
ITEM: BOX BOUNDS pp pp pp
-5.0000000000000000e+01 5.0000000000000000e+01
-5.0000000000000000e+01 5.0000000000000000e+01
-5.0000000000000000e+01 5.0000000000000000e+01
ITEM: ATOMS id type x y z
1 1 17.7512 0.47271 -2.58832
2 1 18.062 0.503966 -1.63698
3 1 18.1197 1.06918 -0.582126
4 1 18.7588 1.15036 0.0905689
5 1 19.3042 0.349995 0.546201
6 1 19.9974 0.636607 1.16992
7 1 20.6162 0.589417 1.97967
8 1 20.704 -0.415926 2.39531
9 1 20.5463 -0.404988 1.36159
10 1 21.3621 0.0455827 1.51819
11 1 21.9861 0.838583 1.63195
12 1 22.1305 1.65013 1.09321
13 1 22.8021 1.95473 0.328433
14 1 22.4262 1.63789 -0.441504
15 1 21.5572 1.62669 0.123945
16 1 20.563 1.86792 0.319775
17 1 20.6673 1.13619 -0.344135
18 1 21.539 0.951056 -0.605474
19 1 21.7725 -0.169693 -0.594135
20 1 22.6241 0.284604 -0.742094
21 1 23.6464 -0.237557 -0.581003
22 1 24.6025 -1.01425 -0.341268
23 1 25.5904 -1.14611 -0.309665
24 1 25.9796 -1.47439 0.557637
25 1 25.8382 -1.96248 1.37541
26 1 25.8252 -1.20595 1.88082
27 1 25.8106 -0.218395 1.20635
28 1 24.9171 -0.107665 1.60812
29 1 24.7181 -1.11713 1.17317
30 1 25.0495 -0.602969 0.524879
31 1 24.076 -0.42131 0.58386
32 1 24.3917 0.362831 0.123629
33 1 23.9828 1.15678 0.523238
34 1 23.3389 1.01705 -0.129705
35 1 22.4252 0.954016 0.422028
36 1 21.425 0.693531 0.5453
37 1 20.5292 0.317836 0.333036
38 1 20.3651 -0.0942874 -0.553871
39 1 20.7845 -0.747683 -0.188607
40 1 20.4292 -1.41947 0.17926
41 1 20.0165 -2.09428 -0.473822
42 1 21.0254 -1.70673 -0.580239
43 1 20.4481 -1.2039 -1.13405
44 1 21.3507 -0.835958 -1.56494
45 1 21.0592 -0.0651694 -2.43332
46 1 21.9835 -0.273465 -2.59587
47 1 21.974 0.208407 -1.67607
48 1 22.9337 -0.224354 -1.85816
49 1 22.518 -0.859691 -1.11406
50 1 22.1756 -1.45229 -0.526091
ITEM: TIMESTEP
9000
ITEM: NUMBER OF ATOMS
50
ITEM: BOX BOUNDS pp pp pp
-5.0000000000000000e+01 5.0000000000000000e+01
-5.0000000000000000e+01 5.0000000000000000e+01
-5.0000000000000000e+01 5.0000000000000000e+01
ITEM: ATOMS id type x y z
1 1 20.2776 -0.640868 -0.151337
2 1 20.0409 -0.50263 -1.05551
3 1 20.8331 -0.651065 -1.67878
4 1 20.1285 -0.117574 -2.0294
5 1 21.0288 0.288113 -1.9825
6 1 20.33 0.689626 -1.34726
7 1 20.5889 1.02797 -0.53879
8 1 19.8687 0.7773 -0.0292083
9 1 19.8507 1.61045 -0.333005
10 1 19.6185 1.9676 0.592428
11 1 20.5607 1.94896 0.668443
12 1 21.165 1.19064 0.607123
13 1 21.7412 1.68271 0.172265
14 1 22.1894 0.813175 0.024952
15 1 22.8722 0.114681 -0.00577547
16 1 23.4472 0.783186 -0.341533
17 1 23.82 -0.229677 -0.0831003
18 1 23.3503 -0.619853 0.682532
19 1 23.1797 0.308384 1.02752
20 1 22.7265 -0.310692 1.84481
21 1 22.1883 -0.41077 0.75312
22 1 21.8849 -1.31297 0.216192
23 1 21.7619 -1.24779 1.33487
24 1 21.1 -1.67611 0.993201
25 1 21.1337 -0.788013 0.634188
26 1 20.268 -0.578582 1.1535
27 1 20.793 -0.22941 1.65988
28 1 21.7169 -0.221345 1.69366
29 1 21.7361 0.646747 2.3498
30 1 22.0593 0.816167 1.6418
31 1 21.8397 1.71487 1.29569
32 1 20.9894 1.48248 1.68739
33 1 20.0536 0.918402 1.8866
34 1 19.941 0.871281 1.05475
35 1 20.6961 0.164286 0.435673
36 1 21.5696 -0.200178 -0.185522
37 1 21.5258 -0.930799 -0.893308
38 1 22.5964 -0.973601 -0.840553
39 1 22.3785 -0.0716517 -0.897656
40 1 23.4531 0.010909 -1.02412
41 1 23.8452 -0.442299 -1.85281
42 1 24.3664 0.299601 -1.66876
43 1 24.799 -0.0276769 -0.806868
44 1 25.5217 0.0404826 -1.27862
45 1 26.3432 -0.181983 -0.720763
46 1 25.7055 -0.971391 -0.908138
47 1 24.8128 -1.20502 -0.522258
48 1 23.9938 -1.46211 -1.11126
49 1 23.107 -1.90145 -1.48464
50 1 22.7022 -2.2625 -0.63891
ITEM: TIMESTEP
10000
ITEM: NUMBER OF ATOMS
50
ITEM: BOX BOUNDS pp pp pp
-5.0000000000000000e+01 5.0000000000000000e+01
-5.0000000000000000e+01 5.0000000000000000e+01
-5.0000000000000000e+01 5.0000000000000000e+01
ITEM: ATOMS id type x y z
1 1 22.9758 0.052453 -2.58135
2 1 23.1579 0.979409 -3.05164
3 1 23.5751 1.22911 -2.16936
4 1 22.7243 1.50139 -1.82399
5 1 23.069 0.575125 -1.43439
6 1 23.2406 -0.0192392 -0.801787
7 1 22.6514 0.794796 -0.313789
8 1 23.5807 0.928227 -0.421728
9 1 24.1641 1.54114 0.0996844
10 1 23.0211 1.9314 0.124671
11 1 22.2731 2.54154 -0.269197
12 1 22.2946 2.02006 -1.18116
13 1 21.3482 1.9899 -1.11339
14 1 20.7862 1.81942 -0.266881
15 1 19.8556 1.24743 -0.0686745
16 1 19.8633 0.613079 0.894906
17 1 19.0686 0.474968 1.56953
18 1 19.8158 -0.357704 1.84002
19 1 20.7613 0.117393 1.25757
20 1 21.0744 -0.813794 1.18004
21 1 21.3808 -1.51285 1.68904
22 1 21.1129 -2.51527 1.77969
23 1 22.0254 -2.33769 2.17522
24 1 22.3983 -2.79562 1.31907
25 1 22.3518 -1.96951 1.01872
26 1 21.8929 -1.17023 0.659421
27 1 21.2097 -1.78903 0.135807
28 1 20.9153 -0.797733 0.0764183
29 1 21.025 0.134993 -0.561191
30 1 20.4401 0.853112 -0.974281
31 1 21.3475 0.861022 -1.52557
32 1 21.3521 0.254539 -2.33403
33 1 21.4172 -0.756325 -2.2525
34 1 22.1401 -0.253555 -1.92951
35 1 21.9097 -0.608866 -1.07552
36 1 22.2082 0.278875 -1.04046
37 1 21.9452 -0.152217 -0.0170239
38 1 21.5354 0.951771 -0.0499244
39 1 22.204 0.715281 0.727859
40 1 22.9081 1.15927 1.22901
41 1 23.1919 0.169327 1.11923
42 1 22.4628 -0.381381 1.45007
43 1 22.5938 0.535042 1.94301
44 1 23.3995 -0.0488915 2.08964
45 1 23.3464 -1.05464 2.52516
46 1 23.0414 -1.43916 1.54871
47 1 23.0619 -1.2789 0.583216
48 1 22.5256 -1.09702 -0.204575
49 1 22.5497 -1.47544 -1.10605
50 1 23.3061 -1.64498 -0.46776
ITEM: TIMESTEP
11000
ITEM: NUMBER OF ATOMS
50
ITEM: BOX BOUNDS pp pp pp
-5.0000000000000000e+01 5.0000000000000000e+01
-5.0000000000000000e+01 5.0000000000000000e+01
-5.0000000000000000e+01 5.0000000000000000e+01
ITEM: ATOMS id type x y z
1 1 22.6893 3.38645 0.329001
2 1 22.9466 2.73801 -0.356661
3 1 22.6507 1.87928 -0.571535
4 1 22.5871 1.23658 -0.0236928
5 1 23.5472 1.12962 0.48065
6 1 23.9914 0.0878584 0.821821
7 1 23.5917 0.401015 1.5556
8 1 23.516 -0.694638 1.52057
9 1 22.7526 -0.443216 1.98773
10 1 22.2112 0.259064 2.51668
11 1 21.8476 1.02888 2.211
12 1 22.2052 1.60088 1.50361
13 1 22.0199 1.85293 0.474542
14 1 21.93 2.43909 -0.0853741
15 1 21.1571 2.32227 -0.73782
16 1 21.8709 1.52179 -1.30104
17 1 22.7749 1.1396 -1.22402
18 1 22.2223 0.631028 -1.9383
19 1 22.3086 -0.262669 -1.75895
20 1 21.5359 -0.937553 -1.92409
21 1 21.6411 -1.94265 -1.85732
22 1 20.8673 -1.64873 -1.33734
23 1 20.6515 -0.693679 -1.15792
24 1 20.775 -0.86148 -0.421074
25 1 21.1198 -0.246848 0.332462
26 1 21.7753 -0.987731 0.61222
27 1 21.8086 -1.46095 -0.274799
28 1 22.5204 -2.0136 -0.71774
29 1 22.7353 -1.01949 -0.38769
30 1 23.0211 -0.974069 -1.28343
31 1 23.4666 -0.197006 -1.58762
32 1 22.7771 -0.0182387 -0.895062
33 1 23.5297 0.496961 -0.332759
34 1 23.4361 -0.201935 0.0948699
35 1 23.0074 -0.742458 0.640634
36 1 22.6518 0.0846908 0.871277
37 1 22.1706 -0.135442 2.15906e-05
38 1 21.8147 0.282771 -0.942744
39 1 21.4009 0.918926 -0.441714
40 1 20.6626 0.339982 -0.427113
41 1 20.7608 0.690552 -1.39059
42 1 19.901 0.233857 -1.05638
43 1 19.7437 -0.582208 -0.702538
44 1 20.0601 -0.376255 0.219206
45 1 20.6624 -1.23714 0.463524
46 1 21.0359 -0.981182 1.39485
47 1 20.9351 -2.1126 1.64831
48 1 21.6335 -2.2656 2.3173
49 1 22.4765 -2.02068 1.94137
50 1 23.102 -1.64403 1.19805
ITEM: TIMESTEP
12000
ITEM: NUMBER OF ATOMS
50
ITEM: BOX BOUNDS pp pp pp
-5.0000000000000000e+01 5.0000000000000000e+01
-5.0000000000000000e+01 5.0000000000000000e+01
-5.0000000000000000e+01 5.0000000000000000e+01
ITEM: ATOMS id type x y z
1 1 21.89 1.82207 0.129119
2 1 21.0141 1.54046 0.714019
3 1 21.7 1.71262 1.43223
4 1 22.494 1.4044 1.94129
5 1 22.8425 2.05854 1.20652
6 1 22.7178 1.096 0.798206
7 1 21.8225 0.899539 0.863118
8 1 20.8877 0.885189 1.68693
9 1 20.2954 0.494446 1.01389
10 1 20.8008 0.255018 0.286635
11 1 21.1063 0.22944 -0.720587
12 1 21.417 1.02371 -0.14482
13 1 20.9257 1.99435 -0.267328
14 1 21.3713 1.80278 -0.980321
15 1 22.2952 1.63505 -1.00563
16 1 22.969 1.34357 -0.220673
17 1 23.0546 0.361984 0.0232098
18 1 23.253 -0.619085 0.00680394
19 1 23.4235 -0.477712 -0.933273
20 1 22.9266 -0.0870382 -1.53932
21 1 22.5844 -0.761313 -2.19816
22 1 22.4954 -1.23403 -1.34371
23 1 21.5665 -1.26056 -1.06324
24 1 21.6866 -1.55786 -0.116904
25 1 22.4806 -2.21243 -0.0716074
26 1 22.7238 -3.02442 0.458233
27 1 21.759 -2.98243 0.765956
28 1 22.4397 -2.25546 1.25879
29 1 23.1223 -1.72808 0.846177
30 1 23.0899 -0.945636 1.48263
31 1 23.63 -0.093926 1.22721
32 1 23.4634 0.101353 2.09189
33 1 22.6287 -0.387111 2.21437
34 1 22.5189 -1.31465 2.27872
35 1 21.5479 -0.644696 2.08979
36 1 21.3106 -0.00148864 1.39071
37 1 21.2971 -0.732989 0.597043
38 1 22.2077 -0.92199 0.795081
39 1 22.6045 0.0222753 0.946881
40 1 22.006 -0.00516842 0.237525
41 1 22.3613 -0.45723 -0.533433
42 1 22.1138 0.512659 -0.844081
43 1 23.0096 0.912395 -1.27723
44 1 22.0831 1.06186 -2.03766
45 1 22.0216 0.24756 -2.63727
46 1 21.6191 -0.174191 -1.77524
47 1 21.245 0.494133 -1.78633
48 1 20.3128 -0.0555537 -1.70118
49 1 20.3397 -0.253929 -2.62852
50 1 21.024 0.277571 -2.95647
ITEM: TIMESTEP
13000
ITEM: NUMBER OF ATOMS
50
ITEM: BOX BOUNDS pp pp pp
-5.0000000000000000e+01 5.0000000000000000e+01
-5.0000000000000000e+01 5.0000000000000000e+01
-5.0000000000000000e+01 5.0000000000000000e+01
ITEM: ATOMS id type x y z
1 1 22.3855 1.32921 1.71526
2 1 21.6772 1.1056 2.23105
3 1 20.9932 1.14642 1.41117
4 1 20.9732 1.94312 1.80001
5 1 20.0069 1.48738 1.82053
6 1 20.1403 0.390542 1.45316
7 1 20.1571 0.99885 0.750126
8 1 19.7049 1.59928 0.202492
9 1 20.4208 1.21085 -0.341739
10 1 20.7652 2.22531 -0.54274
11 1 21.2061 2.38986 0.388218
12 1 21.6136 1.6716 0.662891
13 1 21.2436 0.874265 0.399438
14 1 21.8139 0.489875 1.17186
15 1 22.2552 0.817337 0.351497
16 1 23.1748 0.460099 -0.0244656
17 1 23.7232 -0.134667 0.5051
18 1 24.698 0.340062 0.689586
19 1 24.775 -0.486445 0.388367
20 1 24.3394 0.195964 -0.212293
21 1 23.9403 -0.642655 -0.28992
22 1 24.1344 -1.43867 0.382376
23 1 23.9465 -1.32624 1.2504
24 1 23.24 -1.71617 0.772998
25 1 23.0407 -1.265 -0.174423
26 1 22.2061 -1.04173 -0.601368
27 1 22.2334 -0.665306 0.323538
28 1 21.8146 -1.38753 0.509598
29 1 21.0642 -0.863535 0.677376
30 1 20.7723 -1.79077 0.387971
31 1 20.0232 -2.08015 0.858963
32 1 19.9715 -1.02788 0.646235
33 1 19.9352 -0.625096 -0.333897
34 1 19.695 0.0997001 -1.12411
35 1 19.7281 0.360159 -0.175944
36 1 20.4541 -0.0448094 0.244298
37 1 20.6509 0.231202 -0.582159
38 1 21.1108 -0.610579 -0.518492
39 1 21.7763 0.217698 -0.448597
40 1 21.5118 1.24426 -0.492465
41 1 22.3468 0.79912 -1.10068
42 1 22.3647 -0.0824857 -1.68916
43 1 23.054 -0.518683 -1.18262
44 1 22.6504 -0.984463 -2.13147
45 1 22.9236 -1.63769 -1.40452
46 1 23.8961 -1.7269 -1.49722
47 1 23.862 -0.723513 -1.72841
48 1 24.5612 -0.748085 -2.39776
49 1 25.0947 -0.409621 -1.68885
50 1 24.4298 0.350901 -1.31122
ITEM: TIMESTEP
14000
ITEM: NUMBER OF ATOMS
50
ITEM: BOX BOUNDS pp pp pp
-5.0000000000000000e+01 5.0000000000000000e+01
-5.0000000000000000e+01 5.0000000000000000e+01
-5.0000000000000000e+01 5.0000000000000000e+01
ITEM: ATOMS id type x y z
1 1 21.3711 -1.4666 -1.72879
2 1 20.6508 -1.06865 -2.05792
3 1 20.5996 -0.505299 -1.27191
4 1 19.8217 0.18938 -1.32528
5 1 20.0515 1.07913 -1.33234
6 1 20.859 0.47881 -1.36295
7 1 21.3306 1.41931 -0.861811
8 1 21.406 2.37938 -0.623696
9 1 20.958 2.72031 0.259687
10 1 20.725 1.67645 0.0363824
11 1 21.5926 1.352 0.155546
12 1 21.5297 0.63701 -0.337559
13 1 20.7853 0.229669 -0.396343
14 1 21.4844 -0.467129 0.00203282
15 1 20.6268 -0.660027 0.32385
16 1 21.083 -0.0611026 1.18037
17 1 21.4917 0.977949 1.28694
18 1 22.558 0.635853 1.16032
19 1 22.1151 0.0191227 1.68176
20 1 22.6026 0.340204 2.56365
21 1 22.1211 -0.830016 2.44053
22 1 21.3298 -0.296738 2.6404
23 1 21.0073 -1.15503 1.99799
24 1 20.8323 -1.64897 1.16193
25 1 21.7673 -1.72399 1.33408
26 1 21.8953 -0.827634 0.895189
27 1 22.4034 -0.096891 0.515
28 1 22.6366 0.0684813 -0.375595
29 1 22.4096 -0.977754 -0.144726
30 1 23.1232 -0.711751 -0.931529
31 1 22.7399 -0.0619946 -1.45433
32 1 22.9775 -0.316405 -2.2648
33 1 22.2037 -0.917457 -1.80067
34 1 21.5787 -0.294101 -0.976834
35 1 21.5155 -0.155231 -1.96872
36 1 22.2398 0.41066 -2.17818
37 1 21.9243 0.67154 -1.27938
38 1 22.4329 1.35704 -0.917706
39 1 22.5569 1.76954 0.00515333
40 1 22.5773 0.941766 0.168576
41 1 23.3951 0.502748 0.396155
42 1 23.5945 1.17871 -0.26525
43 1 23.6177 0.424311 -0.643687
44 1 23.6432 -0.324215 0.0882451
45 1 23.1125 -1.07128 0.583534
46 1 23.0162 -1.49469 1.43287
47 1 23.314 -0.813596 2.04508
48 1 23.9209 -1.03337 1.22715
49 1 24.5183 -0.7361 0.530378
50 1 24.4527 -1.74336 0.387195
ITEM: TIMESTEP
15000
ITEM: NUMBER OF ATOMS
50
ITEM: BOX BOUNDS pp pp pp
-5.0000000000000000e+01 5.0000000000000000e+01
-5.0000000000000000e+01 5.0000000000000000e+01
-5.0000000000000000e+01 5.0000000000000000e+01
ITEM: ATOMS id type x y z
1 1 22.5006 1.6601 0.0794531
2 1 22.2374 1.47011 -1.0555
3 1 22.2455 1.26527 -1.99628
4 1 21.3 0.862619 -1.93543
5 1 22.0999 0.447572 -2.5468
6 1 21.8581 -0.403138 -2.29496
7 1 21.1857 -1.02806 -2.8606
8 1 20.9129 -1.44976 -2.23416
9 1 20.4707 -0.884698 -1.51202
10 1 21.2605 -1.15982 -1.13441
11 1 21.819 -0.32279 -1.05582
12 1 22.2712 0.353436 -1.38007
13 1 21.4016 0.594682 -0.964873
14 1 21.6198 0.934382 0.0628895
15 1 21.4647 0.0531717 -0.0082236
16 1 20.9158 -0.603289 -0.425921
17 1 20.2806 0.272751 -0.327031
18 1 20.7013 0.86254 0.541319
19 1 20.477 -0.227801 0.574644
20 1 19.4942 -0.131265 0.291585
21 1 19.3183 0.456214 1.13211
22 1 20.3469 0.432352 1.43518
23 1 20.3688 0.861216 2.32947
24 1 20.9643 1.3463 1.71058
25 1 21.7048 0.7768 2.02016
26 1 21.4743 0.328053 1.30294
27 1 22.1662 0.198991 0.83257
28 1 22.7015 0.59225 0.367562
29 1 22.5974 -0.102478 -0.2446
30 1 22.6347 -1.02719 -0.782394
31 1 23.5163 -1.0774 -1.18644
32 1 22.8666 -0.964541 -1.85365
33 1 23.301 -0.305744 -2.23303
34 1 23.3961 0.626484 -1.99805
35 1 24.0637 0.0313409 -1.60679
36 1 23.1548 -0.0173182 -1.11201
37 1 23.3918 1.00988 -0.890382
38 1 23.6796 0.884969 0.188187
39 1 24.7074 0.498688 0.249665
40 1 24.2357 0.276603 -0.610725
41 1 23.9844 -0.246101 0.25088
42 1 22.9462 -0.552464 0.548513
43 1 21.9568 -0.80136 0.619621
44 1 22.2501 -0.594851 1.52534
45 1 22.6541 0.164819 1.82358
46 1 23.1713 0.119377 2.63357
47 1 23.0572 -0.879496 2.50518
48 1 22.2951 -1.19924 3.06551
49 1 21.691 -1.26069 3.78743
50 1 21.3873 -2.14146 4.37224
ITEM: TIMESTEP
16000
ITEM: NUMBER OF ATOMS
50
ITEM: BOX BOUNDS pp pp pp
-5.0000000000000000e+01 5.0000000000000000e+01
-5.0000000000000000e+01 5.0000000000000000e+01
-5.0000000000000000e+01 5.0000000000000000e+01
ITEM: ATOMS id type x y z
1 1 22.5447 0.812997 -1.12268
2 1 22.8258 1.6301 -1.56141
3 1 23.279 1.89755 -0.54536
4 1 24.166 1.82832 -0.870593
5 1 24.7778 1.16765 -0.763666
6 1 24.314 1.45339 0.14291
7 1 24.9469 0.889242 0.514624
8 1 25.1829 0.193568 0.0656081
9 1 24.2095 0.405841 -0.325128
10 1 23.5377 0.843996 -0.681566
11 1 23.8059 0.929649 -1.54225
12 1 23.6545 0.331907 -2.54936
13 1 23.64 -0.685185 -1.99827
14 1 22.7503 -0.0621761 -1.80742
15 1 23.1182 -0.426531 -0.969366
16 1 22.3386 -0.935078 -1.0582
17 1 21.6776 -1.58404 -0.469271
18 1 20.9767 -1.4728 0.0573714
19 1 20.5286 -0.605526 -0.0913043
20 1 21.3122 -0.541202 -0.732234
21 1 20.9795 -1.30063 -1.18347
22 1 20.513 -1.82472 -1.77507
23 1 20.5104 -0.78861 -2.20296
24 1 20.0719 -0.102893 -1.72342
25 1 20.5627 0.795539 -1.61941
26 1 20.3713 0.323275 -0.761083
27 1 21.236 0.805671 -0.244357
28 1 21.4268 -0.0869306 0.209326
29 1 22.2988 0.200662 0.651545
30 1 22.4243 0.0916253 -0.376729
31 1 22.5252 0.940325 0.0285094
32 1 23.3344 0.48684 0.264654
33 1 23.1705 -0.270229 0.85216
34 1 22.674 -0.748202 0.234598
35 1 23.6164 -1.36361 0.611282
36 1 23.1106 -2.28291 0.780213
37 1 23.02 -1.49038 1.4917
38 1 21.9343 -1.38249 1.66914
39 1 22.0846 -0.548196 1.69875
40 1 21.4266 0.00831857 1.24574
41 1 20.9934 -0.896738 1.30993
42 1 20.3414 -0.0915373 0.894054
43 1 20.1019 0.65307 0.30009
44 1 20.5304 0.953994 1.22443
45 1 20.0917 1.22251 2.08775
46 1 20.9534 0.883445 2.44071
47 1 20.2282 0.210317 2.20226
48 1 19.8439 -0.669525 1.87812
49 1 19.3768 0.183588 1.6279
50 1 19.1612 0.0167508 2.4912
ITEM: TIMESTEP
17000
ITEM: NUMBER OF ATOMS
50
ITEM: BOX BOUNDS pp pp pp
-5.0000000000000000e+01 5.0000000000000000e+01
-5.0000000000000000e+01 5.0000000000000000e+01
-5.0000000000000000e+01 5.0000000000000000e+01
ITEM: ATOMS id type x y z
1 1 21.614 1.71708 0.744289
2 1 21.5704 0.797661 0.461963
3 1 22.0202 0.894844 1.42053
4 1 23.0975 0.713803 1.47738
5 1 23.0269 0.773652 0.45838
6 1 24.074 1.01903 0.764037
7 1 24.0499 0.680327 -0.31573
8 1 24.9719 1.06459 -0.11279
9 1 25.4887 0.184876 0.302616