ITEM: TIMESTEP
0
ITEM: NUMBER OF ATOMS
50
ITEM: BOX BOUNDS pp pp pp
-5.0000000000000000e+01 5.0000000000000000e+01
-5.0000000000000000e+01 5.0000000000000000e+01
-5.0000000000000000e+01 5.0000000000000000e+01
ITEM: ATOMS id type x y z
1 1 -2.36519 0 0
2 1 -1.36694 0 0
3 1 -0.370475 0 0
4 1 0.625987 0 0
5 1 1.62246 0 0
6 1 2.61892 0 0
7 1 3.61539 0 0
8 1 4.61185 0 0
9 1 5.60832 0 0
10 1 6.60478 0 0
11 1 7.60125 0 0
12 1 8.59771 0 0
13 1 9.59418 0 0
14 1 10.5906 0 0
15 1 11.5871 0 0
16 1 12.5836 0 0
17 1 13.58 0 0
18 1 14.5765 0 0
19 1 15.573 0 0
20 1 16.5694 0 0
21 1 17.5659 0 0
22 1 18.5624 0 0
23 1 19.5588 0 0
24 1 20.5553 0 0
25 1 21.5518 0 0
26 1 22.5482 0 0
27 1 23.5447 0 0
28 1 24.5412 0 0
29 1 25.5376 0 0
30 1 26.5341 0 0
31 1 27.5306 0 0
32 1 28.527 0 0
33 1 29.5235 0 0
34 1 30.52 0 0
35 1 31.5164 0 0
36 1 32.5129 0 0
37 1 33.5094 0 0
38 1 34.5058 0 0
39 1 35.5023 0 0
40 1 36.4988 0 0
41 1 37.4952 0 0
42 1 38.4917 0 0
43 1 39.4881 0 0
44 1 40.4846 0 0
45 1 41.4811 0 0
46 1 42.4775 0 0
47 1 43.474 0 0
48 1 44.4705 0 0
49 1 45.4669 0 0
50 1 46.4652 0 0
ITEM: TIMESTEP
1000
ITEM: NUMBER OF ATOMS
50
ITEM: BOX BOUNDS pp pp pp
-5.0000000000000000e+01 5.0000000000000000e+01
-5.0000000000000000e+01 5.0000000000000000e+01
-5.0000000000000000e+01 5.0000000000000000e+01
ITEM: ATOMS id type x y z
1 1 8.26418 0.66678 0.898305
2 1 9.02857 1.12738 0.590885
3 1 8.95413 0.180812 -0.0344978
4 1 9.71058 0.246846 0.246401
5 1 9.95539 0.980088 -0.412182
6 1 10.6748 1.72393 -0.395782
7 1 10.3718 1.20332 0.498591
8 1 10.4345 0.391666 1.06494
9 1 11.0937 0.0873251 0.456327
10 1 11.0622 0.63826 -0.290923
11 1 10.5126 -0.0137313 -0.872863
12 1 11.3824 -0.216915 -0.727887
13 1 12.2525 0.0861333 -0.642957
14 1 12.8398 -0.579632 -1.20063
15 1 13.2477 -0.240449 -0.384631
16 1 14.2222 -0.597718 -0.510158
17 1 15.1453 -0.232566 -0.697178
18 1 16.1233 -0.263476 -0.419645
19 1 17.1423 -0.173362 -0.552507
20 1 17.8663 -0.578997 -0.0323684
21 1 18.6517 -0.657102 -0.640167
22 1 19.0238 -0.439702 0.303354
23 1 19.657 -1.01484 -0.316243
24 1 20.0386 -0.920617 0.567282
25 1 20.6778 -1.75035 0.376974
26 1 21.5526 -1.12447 0.176194
27 1 22.4039 -1.49635 -0.319181
28 1 23.3302 -1.16376 -0.446532
29 1 23.9405 -1.68615 -1.1172
30 1 24.79 -1.04201 -1.19123
31 1 25.8386 -1.04359 -1.3619
32 1 26.8513 -0.960598 -1.34588
33 1 27.6842 -0.646094 -1.32947
34 1 28.5664 -0.27333 -1.17848
35 1 29.4975 -0.106102 -0.757812
36 1 30.2734 0.567842 -0.458328
37 1 30.8057 0.686416 0.320736
38 1 31.3323 0.214812 -0.363199
39 1 32.0293 0.98008 -0.053594
40 1 32.5446 0.298476 -0.573983
41 1 33.3562 0.96635 -0.198294
42 1 33.5274 0.466922 0.732188
43 1 34.5177 0.843898 0.980685
44 1 35.2325 1.46165 0.591928
45 1 35.623 0.558072 0.804005
46 1 36.1604 0.16128 1.41593
47 1 36.5289 1.15619 1.21996
48 1 35.8949 1.11772 2.08676
49 1 36.2375 0.327055 2.3933
50 1 35.6476 0.0826244 3.10095
ITEM: TIMESTEP
2000
ITEM: NUMBER OF ATOMS
50
ITEM: BOX BOUNDS pp pp pp
-5.0000000000000000e+01 5.0000000000000000e+01
-5.0000000000000000e+01 5.0000000000000000e+01
-5.0000000000000000e+01 5.0000000000000000e+01
ITEM: ATOMS id type x y z
1 1 19.8407 2.31984 0.378065
2 1 19.9895 2.05129 -0.560003
3 1 19.3621 1.44625 -0.193493
4 1 20.1573 0.984851 0.1023
5 1 20.716 1.31773 0.698268
6 1 20.1798 0.512423 0.993374
7 1 19.3046 0.530536 1.17424
8 1 19.172 0.401621 0.247208
9 1 19.4618 -0.450969 0.800088
10 1 19.6057 -1.42547 0.828656
11 1 20.1663 -1.30203 0.103252
12 1 20.4664 -0.560074 0.726157
13 1 20.0856 -0.0553166 -0.200319
14 1 19.2783 -0.487134 -0.669684
15 1 19.4207 0.518663 -0.748676
16 1 19.7476 0.180778 -1.718
17 1 20.6628 0.565806 -1.54751
18 1 21.3441 -0.174211 -1.47154
19 1 21.4353 -0.280339 -0.448476
20 1 20.9294 -1.0754 -0.524534
21 1 21.7686 -1.21539 -0.538221
22 1 22.655 -1.3228 -0.798728
23 1 22.3839 -0.662796 -1.34162
24 1 21.8547 -1.3182 -1.62399
25 1 22.4755 -1.48023 -2.16599
26 1 21.9836 -0.519334 -2.23063
27 1 22.0147 0.363241 -2.36941
28 1 22.8422 0.303775 -2.16608
29 1 23.3645 -0.163606 -1.61712
30 1 23.1359 -0.43318 -0.635489
31 1 22.6391 -0.55558 0.0713568
32 1 23.1884 -0.602542 0.587166
33 1 23.4279 -1.3029 0.198476
34 1 24.0778 -0.637209 0.167809
35 1 24.7427 -0.0812045 0.635001
36 1 25.6594 0.0796206 0.758035
37 1 25.4856 -0.989398 1.1825
38 1 24.5641 -1.23684 0.990681
39 1 23.6561 -0.794655 1.56434
40 1 23.8896 0.0823591 1.19898
41 1 22.9658 0.0480239 1.46166
42 1 22.2199 -0.0211714 0.871368
43 1 22.2811 0.554199 0.0175414
44 1 22.9686 0.748806 0.43261
45 1 23.5873 0.320628 0.168223
46 1 24.0731 1.08887 0.559513
47 1 24.8879 0.809752 1.15055
48 1 24.9455 1.26777 1.91502
49 1 24.0147 1.40911 2.12103
50 1 23.4209 1.242 1.46605
ITEM: TIMESTEP
3000
ITEM: NUMBER OF ATOMS
50
ITEM: BOX BOUNDS pp pp pp
-5.0000000000000000e+01 5.0000000000000000e+01
-5.0000000000000000e+01 5.0000000000000000e+01
-5.0000000000000000e+01 5.0000000000000000e+01
ITEM: ATOMS id type x y z
1 1 19.1252 1.9763 -1.29402
2 1 19.8529 1.80394 -1.89764
3 1 20.8168 2.15633 -1.82182
4 1 21.1133 2.00054 -0.879789
5 1 21.7714 1.82805 -1.43401
6 1 21.1618 1.00652 -0.96408
7 1 20.3796 0.667003 -1.29511
8 1 20.949 -0.0296386 -1.50804
9 1 21.0148 -0.974594 -0.769534
10 1 21.6025 -0.798857 -0.0978104
11 1 21.6242 0.0649406 -0.342168
12 1 22.2545 -0.337191 -1.03566
13 1 22.3809 -0.241048 -1.82967
14 1 22.543 0.876715 -1.61403
15 1 22.141 1.12409 -0.622465
16 1 22.8918 1.45925 -0.0932428
17 1 23.8272 1.13989 -0.626966
18 1 24.0934 0.679825 0.00742935
19 1 23.2316 0.344406 -0.495405
20 1 23.6518 -0.206253 -1.39912
21 1 23.4993 -0.0564679 -2.1378
22 1 24.239 0.656823 -2.22529
23 1 24.6213 -0.220303 -2.50854
24 1 24.0758 -1.03099 -1.79716
25 1 23.4926 -1.17973 -1.09228
26 1 22.9335 -1.69403 -0.175736
27 1 23.2571 -2.65897 0.300194
28 1 22.6765 -2.89303 1.21511
29 1 23.2816 -2.03565 1.41998
30 1 23.0876 -1.14797 1.55101
31 1 22.0866 -1.41258 2.07365
32 1 22.2781 -1.74345 3.04104
33 1 21.1165 -1.43319 3.0108
34 1 21.0278 -1.15069 2.23724
35 1 20.8173 -0.730114 1.56184
36 1 20.67 -0.89762 0.614331
37 1 19.9171 -0.441367 0.405786
38 1 20.5384 0.346939 0.884968
39 1 20.8768 0.752138 0.00313742
40 1 21.5704 0.914106 0.498524
41 1 22.313 0.426713 0.25215
42 1 22.2963 0.392774 1.22677
43 1 23.0375 0.969719 0.939533
44 1 23.1819 -0.0714045 0.766487
45 1 22.4287 -0.632148 0.762245
46 1 22.1091 -0.439642 1.75833
47 1 21.4876 -0.169091 0.804592
48 1 21.2866 0.368579 1.58028
49 1 21.307 1.25423 1.89899
50 1 20.5621 1.41621 1.14294
ITEM: TIMESTEP
4000
ITEM: NUMBER OF ATOMS
50
ITEM: BOX BOUNDS pp pp pp
-5.0000000000000000e+01 5.0000000000000000e+01
-5.0000000000000000e+01 5.0000000000000000e+01
-5.0000000000000000e+01 5.0000000000000000e+01
ITEM: ATOMS id type x y z
1 1 23.4669 2.41298 -1.68106
2 1 22.5959 1.8665 -1.83657
3 1 23.0437 1.67088 -2.81225
4 1 23.2774 0.59586 -2.8156
5 1 23.6679 0.238716 -1.93978
6 1 23.9264 1.36846 -2.21051
7 1 23.8236 1.08831 -1.4144
8 1 24.1021 0.181443 -0.976869
9 1 23.9543 -0.728489 -1.5503
10 1 23.613 -0.651478 -0.644482
11 1 22.9441 -0.0428074 -0.439607
12 1 22.3051 0.291564 0.115939
13 1 22.3596 0.740949 -0.924699
14 1 21.8774 1.43378 -0.731689
15 1 22.879 1.69456 -0.710508
16 1 22.6986 1.15004 0.130666
17 1 23.7101 1.19745 -0.215686
18 1 24.7861 0.942475 0.092928
19 1 24.5614 0.901065 0.993462
20 1 25.1048 1.64005 1.48715
21 1 23.994 1.77747 1.46676
22 1 23.8249 1.02516 1.89522
23 1 23.3634 0.208744 2.0951
24 1 23.4386 -0.274724 1.1266
25 1 23.5564 0.618945 0.700477
26 1 22.4328 0.54219 1.23559
27 1 22.4105 -0.483797 1.04099
28 1 21.9338 -1.24181 0.834445
29 1 20.8119 -1.34331 1.06131
30 1 21.1063 -2.03338 1.86599
31 1 21.1215 -2.47557 0.988489
32 1 20.0735 -2.36774 0.897341
33 1 19.9651 -1.53544 0.468783
34 1 20.5292 -0.892964 0.0817901
35 1 20.9195 -1.83402 -0.0597517
36 1 21.2333 -2.19577 -1.0417
37 1 21.9943 -1.72583 -1.05816
38 1 21.4656 -0.80532 -1.36571
39 1 21.7344 -0.484421 -0.526046
40 1 21.2302 -0.212566 0.20677
41 1 20.9389 0.878794 0.495788
42 1 20.0088 0.796937 0.796037
43 1 19.9267 0.864895 -0.240573
44 1 20.0301 -0.0483187 -0.528206
45 1 19.0626 0.241032 -0.0559541
46 1 18.8713 -0.665448 0.357555
47 1 19.6265 -0.325566 0.66374
48 1 19.2964 -0.605477 1.59379
49 1 19.8656 -1.40281 1.61457
50 1 19.0363 -1.99224 1.47282
ITEM: TIMESTEP
5000
ITEM: NUMBER OF ATOMS
50
ITEM: BOX BOUNDS pp pp pp
-5.0000000000000000e+01 5.0000000000000000e+01
-5.0000000000000000e+01 5.0000000000000000e+01
-5.0000000000000000e+01 5.0000000000000000e+01
ITEM: ATOMS id type x y z
1 1 24.8339 2.76491 1.22333
2 1 24.1675 2.06674 1.24472
3 1 23.1553 1.79006 0.771978
4 1 22.8535 1.37628 0.0724934
5 1 23.6656 1.44781 -0.454397
6 1 24.3697 1.00252 -0.827104
7 1 24.5019 0.441016 0.0645399
8 1 24.344 1.38186 0.191216
9 1 23.7889 0.835777 0.765428
10 1 23.9601 -0.427407 0.819439
11 1 23.05 -0.1637 1.43555
12 1 23.1419 -0.119542 0.473481
13 1 22.2376 -0.334742 0.693575
14 1 21.8411 -0.024887 1.75426
15 1 22.5917 0.355797 2.25594
16 1 22.5979 0.730567 1.3573
17 1 21.7077 1.27131 1.58377
18 1 22.0174 1.74654 0.81439
19 1 21.0336 1.45503 0.928225
20 1 21.4362 0.499322 0.842319
21 1 22.187 0.497359 0.180625
22 1 21.3671 1.1476 -0.0656202
23 1 20.5078 1.39805 -0.295249
24 1 20.213 0.928474 0.608829
25 1 20.1541 0.23693 1.28571
26 1 19.9776 -0.373299 0.572372
27 1 20.4402 -0.412256 -0.47536
28 1 21.2628 -0.354278 0.115512
29 1 21.594 0.144117 -0.643927
30 1 21.3409 0.843929 -1.355
31 1 20.973 -0.0562943 -1.77828
32 1 19.9108 -0.0663047 -1.52237
33 1 19.5593 -0.31693 -0.830287
34 1 19.8614 -1.33465 -0.600969
35 1 19.6065 -1.88194 0.0553409
36 1 20.4196 -1.41484 0.436654
37 1 20.9448 -0.770876 1.0545
38 1 21.7265 -1.34089 0.610657
39 1 21.9926 -1.4432 -0.341143
40 1 22.7483 -1.4458 0.468758
41 1 23.2731 -1.17137 -0.375108
42 1 23.6992 -0.231287 -0.625914
43 1 22.8173 0.103743 -0.794664
44 1 22.2458 -0.492126 -1.25479
45 1 23.166 -0.644043 -1.53976
46 1 22.9346 -1.27566 -2.10041
47 1 22.2021 -2.19145 -1.87017
48 1 21.639 -1.35158 -1.8849
49 1 21.4887 -2.19089 -1.03275
50 1 20.9512 -2.63551 -2.01273
ITEM: TIMESTEP
6000
ITEM: NUMBER OF ATOMS
50
ITEM: BOX BOUNDS pp pp pp
-5.0000000000000000e+01 5.0000000000000000e+01
-5.0000000000000000e+01 5.0000000000000000e+01
-5.0000000000000000e+01 5.0000000000000000e+01
ITEM: ATOMS id type x y z
1 1 21.7637 2.12366 1.31712
2 1 20.9796 1.66568 1.68834
3 1 20.3794 2.19022 1.16643
4 1 20.0982 1.14678 1.16089
5 1 20.1469 0.541151 2.10702
6 1 20.4606 -0.473374 2.36353
7 1 21.0654 0.0763366 1.84758
8 1 21.3219 0.725798 2.71144
9 1 21.9125 0.983976 2.24136
10 1 22.4747 1.31558 1.57038
11 1 22.2932 1.31681 0.629478
12 1 21.1866 1.30335 0.785884
13 1 21.1502 0.18247 0.539506
14 1 20.2174 0.270996 0.0839733
15 1 20.0433 0.818777 -0.80876
16 1 20.5248 1.18904 -0.116937
17 1 20.5189 2.03661 -0.255074
18 1 21.0102 2.44954 -0.98801
19 1 21.6841 2.12932 -0.248772
20 1 21.5743 1.53649 -1.07267
21 1 21.7919 0.680246 -1.35793
22 1 21.4494 0.68088 -0.463123
23 1 21.5238 -0.24016 -0.435796
24 1 22.1626 0.232332 0.103642
25 1 21.9308 0.459643 1.12406
26 1 22.3298 -0.417868 1.24963
27 1 23.2865 -0.791444 1.04961
28 1 23.7613 -0.43466 1.8425
29 1 23.6427 0.454372 1.53679
30 1 23.4836 1.45549 1.12258
31 1 23.9095 1.99383 0.435501
32 1 24.0442 0.882884 0.404849
33 1 23.9234 1.41906 -0.589844
34 1 23.0002 0.845831 -0.540898
35 1 22.8313 0.477203 -1.4854
36 1 22.5229 -0.337746 -1.18207
37 1 22.8053 -0.621651 -0.266
38 1 23.6372 -1.19968 -0.385929
39 1 23.3711 -1.96121 -0.598459
40 1 22.8146 -1.37916 -1.14552
41 1 23.2447 -2.11172 -1.7233
42 1 23.2322 -3.10391 -1.6697
43 1 22.9251 -3.41609 -0.896866
44 1 22.2588 -2.81282 -1.41944
45 1 22.0342 -2.10133 -0.980277
46 1 21.4027 -2.29497 -1.44715
47 1 21.2836 -3.26109 -1.70317
48 1 21.9885 -2.98464 -2.34825
49 1 22.6134 -2.35126 -2.74017
50 1 22.4889 -1.28956 -2.21257
ITEM: TIMESTEP
7000
ITEM: NUMBER OF ATOMS
50
ITEM: BOX BOUNDS pp pp pp
-5.0000000000000000e+01 5.0000000000000000e+01
-5.0000000000000000e+01 5.0000000000000000e+01
-5.0000000000000000e+01 5.0000000000000000e+01
ITEM: ATOMS id type x y z
1 1 21.6616 1.27578 -2.52564
2 1 21.416 1.18364 -1.79597
3 1 21.5757 0.333444 -1.09561
4 1 20.7109 0.989897 -0.70875
5 1 20.1902 0.336724 -0.323091
6 1 20.2855 0.913737 0.484584
7 1 20.8286 1.3491 1.30704
8 1 21.4901 0.990958 0.65942
9 1 21.6916 1.04229 -0.21938
10 1 22.0926 0.0676431 0.0399522
11 1 22.4803 0.386718 -0.724448
12 1 22.7747 0.577905 -1.57623
13 1 23.4611 1.38587 -1.51447
14 1 23.8734 1.58571 -2.36646
15 1 22.8853 1.71539 -2.23607
16 1 22.5323 2.10821 -1.62907
17 1 22.2347 1.36518 -1.17404
18 1 22.523 1.90785 -0.639107
19 1 22.8526 1.19324 0.190164
20 1 23.3671 0.378915 0.257858
21 1 23.6005 0.251586 -0.774665
22 1 22.7597 -0.664236 -0.927317
23 1 21.6429 -0.70909 -1.07169
24 1 21.1531 -1.30004 -0.235372
25 1 21.2051 -0.379611 -0.199026
26 1 20.7147 -0.205103 0.62551
27 1 20.0931 -0.580253 1.45111
28 1 19.4987 -0.246718 2.34326
29 1 20.4034 0.22875 2.34217
30 1 19.9731 0.547823 1.96411
31 1 20.9889 0.325252 1.51193
32 1 22.1523 0.487614 1.16784
33 1 22.7461 -0.0943201 1.49275
34 1 21.8227 -0.238435 1.87596
35 1 21.5104 -0.775341 1.05206
36 1 21.0976 -1.54577 1.68324
37 1 21.8917 -2.16895 1.63057
38 1 22.0125 -1.29492 2.05647
39 1 22.1658 -2.29607 2.7197
40 1 22.9326 -1.98598 2.09011
41 1 22.6357 -1.53955 1.18061
42 1 21.8886 -1.68917 0.691048
43 1 22.4688 -0.837323 0.46659
44 1 22.6323 -1.54918 -0.247342
45 1 23.3593 -0.668969 -0.0591335
46 1 23.885 -1.17444 -0.685168
47 1 23.5481 -0.780702 -1.65661
48 1 23.0861 -0.263325 -2.37515
49 1 24.0009 -0.418709 -2.48871
50 1 23.703 0.476996 -2.03555
ITEM: TIMESTEP
8000
ITEM: NUMBER OF ATOMS
50
ITEM: BOX BOUNDS pp pp pp
-5.0000000000000000e+01 5.0000000000000000e+01
-5.0000000000000000e+01 5.0000000000000000e+01
-5.0000000000000000e+01 5.0000000000000000e+01
ITEM: ATOMS id type x y z
1 1 20.5897 -2.20066 -2.01827
2 1 20.9363 -1.89206 -2.74003
3 1 21.2494 -1.00948 -2.77149
4 1 21.4551 -1.30046 -1.8096
5 1 22.1889 -0.532744 -1.7789
6 1 22.9912 -0.464925 -1.27375
7 1 23.0491 0.523788 -1.48755
8 1 22.5263 0.947037 -0.753019
9 1 22.0621 1.63006 -0.0334702
10 1 22.9106 2.17671 -0.141864
11 1 23.4698 1.41683 -0.0430618
12 1 24.1769 0.853622 -0.404087
13 1 24.3521 1.50783 0.463168
14 1 24.095 0.795126 1.08214
15 1 23.5118 1.48965 1.59543
16 1 22.9313 1.67428 0.78698
17 1 22.2491 2.194 0.972791
18 1 21.2419 2.20825 1.27842
19 1 20.6759 1.26204 1.1913
20 1 21.44 0.982873 0.522159
21 1 22.2722 0.48617 0.108762
22 1 22.228 -0.159633 -0.343864
23 1 22.4975 -0.550155 0.545288
24 1 22.8791 -1.54943 0.310786
25 1 23.3409 -1.59389 -0.603409
26 1 22.3551 -1.58517 -0.773053
27 1 21.501 -1.01691 -0.749476
28 1 20.3981 -0.93176 -1.0129
29 1 19.9451 -0.253046 -1.22031
30 1 21.0841 -0.0213616 -1.30496
31 1 21.5438 0.665155 -0.973327
32 1 20.6616 1.50482 -1.13398
33 1 19.9981 0.836371 -1.04525
34 1 20.4884 0.714119 -0.361529
35 1 21.1117 -0.2046 -0.128996
36 1 20.898 -1.11965 0.0631166
37 1 21.5727 -1.92085 0.202605
38 1 21.8885 -2.34156 1.10189
39 1 22.093 -1.57278 1.87378
40 1 20.9845 -1.50251 1.83838
41 1 21.1251 -0.611475 1.79409
42 1 21.4881 -0.551145 0.815316
43 1 21.5838 0.263965 1.33277
44 1 21.6368 1.05712 1.83218
45 1 22.6432 0.518118 1.77568
46 1 23.196 0.465831 0.652265
47 1 23.3761 0.221232 -0.331419
48 1 23.5628 -0.490896 0.219687
49 1 23.4876 -0.519993 1.32009
50 1 22.5566 -0.497846 1.55852
ITEM: TIMESTEP
9000
ITEM: NUMBER OF ATOMS
50
ITEM: BOX BOUNDS pp pp pp
-5.0000000000000000e+01 5.0000000000000000e+01
-5.0000000000000000e+01 5.0000000000000000e+01
-5.0000000000000000e+01 5.0000000000000000e+01
ITEM: ATOMS id type x y z
1 1 26.2696 -0.619086 1.26916
2 1 25.7017 -0.0521769 0.718391
3 1 25.052 -0.785134 1.13798
4 1 25.0734 -1.57055 0.429613
5 1 24.2389 -1.11188 0.359003
6 1 23.399 -0.639905 0.622222
7 1 23.7384 0.0552484 1.28456
8 1 23.479 0.490537 0.505773
9 1 22.7093 0.685254 0.761472
10 1 22.3196 0.0425285 1.27495
11 1 21.4979 0.353926 0.628761
12 1 20.9706 0.862915 0.805161
13 1 20.207 0.49989 1.05338
14 1 19.523 0.857098 0.198671
15 1 19.4988 1.74028 0.658127
16 1 19.9802 2.34297 0.329399
17 1 20.7474 1.73715 0.402405
18 1 21.7356 1.4155 -0.107913
19 1 22.0629 0.577325 -0.649559
20 1 21.3851 0.0912238 -0.287455
21 1 22.1573 -0.394522 0.195283
22 1 22.6061 -1.43688 0.000399042
23 1 21.9899 -1.46374 -0.621393
24 1 21.2319 -1.93359 -1.24877
25 1 20.8238 -0.995541 -1.79883
26 1 21.6591 -0.391758 -1.86873
27 1 21.5071 -0.482715 -1.08962
28 1 22.3197 -0.363433 -1.0004
29 1 23.0623 -0.119446 -0.324234
30 1 23.6067 0.438472 -1.02955
31 1 24.0977 0.179212 -0.266352
32 1 23.822 1.14379 -0.162129
33 1 23.0527 1.35411 -0.434658
34 1 22.6842 1.2687 -1.43221
35 1 22.2143 0.435645 -1.70352
36 1 21.6678 1.44129 -1.29354
37 1 21.1713 0.606898 -1.38289
38 1 20.8508 1.00104 -0.454009
39 1 20.0942 0.881077 -1.01071
40 1 19.6973 0.193805 -0.760975
41 1 20.4389 -0.118991 -1.14728
42 1 19.9408 -0.901385 -0.415542
43 1 20.1586 -0.200155 0.258829
44 1 20.3035 -0.805062 0.983944
45 1 21.0956 -0.633251 0.859443
46 1 20.9887 -0.965811 0.102069
47 1 21.7112 -1.32763 0.558111
48 1 22.5278 -1.30405 1.09518
49 1 22.4808 -1.56312 2.05486
50 1 22.9484 -0.516054 1.94312
ITEM: TIMESTEP
10000
ITEM: NUMBER OF ATOMS
50
ITEM: BOX BOUNDS pp pp pp
-5.0000000000000000e+01 5.0000000000000000e+01
-5.0000000000000000e+01 5.0000000000000000e+01
-5.0000000000000000e+01 5.0000000000000000e+01
ITEM: ATOMS id type x y z
1 1 21.3083 -2.03315 3.56951
2 1 20.6681 -1.64606 2.75808
3 1 20.2831 -0.556094 2.66682
4 1 21.3238 -0.801222 2.94346
5 1 21.8616 -0.690387 2.13579
6 1 21.4912 -1.13676 1.06416
7 1 20.7482 -0.351879 0.897352
8 1 21.2026 0.572814 1.00563
9 1 21.1602 1.10135 0.314
10 1 20.826 0.370902 -0.0878544
11 1 20.2898 0.567951 -0.941362
12 1 20.9567 1.16798 -0.880404
13 1 21.238 2.19796 -0.534465
14 1 22.1144 2.17356 -0.420309
15 1 22.5942 1.5202 -1.14123
16 1 23.4553 1.19506 -1.93175
17 1 22.8105 0.567618 -1.72294
18 1 21.8712 0.833273 -1.30772
19 1 21.9736 0.999489 -0.480858
20 1 21.9232 0.11653 -0.0305631
21 1 22.3309 -0.0875968 0.928776
22 1 22.5447 0.0134665 1.76749
23 1 23.0389 0.113994 2.49746
24 1 23.8507 0.619007 1.9843
25 1 23.6978 -0.494209 1.91659
26 1 23.3934 -0.749889 1.01862
27 1 23.9795 0.185726 0.970648
28 1 23.4125 1.05218 0.826809
29 1 22.4002 1.16206 0.74
30 1 22.7393 0.634554 0.196721
31 1 23.0375 1.58841 -0.250906
32 1 23.7758 0.658943 -0.159288
33 1 23.5015 0.766499 -1.02096
34 1 22.9775 -0.0268093 -0.75985
35 1 23.3841 -0.485722 -0.0271976
36 1 23.8226 -0.54731 -0.926017
37 1 22.8153 -0.817221 -1.34255
38 1 22.5263 -0.994399 -0.181675
39 1 21.9513 -0.553995 -0.916923
40 1 21.8551 -0.27338 -1.98104
41 1 21.0065 -0.685889 -2.31305
42 1 20.7996 0.315974 -2.55019
43 1 21.1015 0.305523 -1.81278
44 1 21.0071 -0.431777 -1.11993
45 1 19.9394 -0.746241 -1.09271
46 1 20.4436 -0.544425 -0.279843
47 1 21.3977 -1.16474 -0.0657545
48 1 21.9898 -1.75589 -0.648251
49 1 21.5002 -1.44949 -1.37054
50 1 22.1796 -1.7765 -1.90331
ITEM: TIMESTEP
11000
ITEM: NUMBER OF ATOMS
50
ITEM: BOX BOUNDS pp pp pp
-5.0000000000000000e+01 5.0000000000000000e+01
-5.0000000000000000e+01 5.0000000000000000e+01
-5.0000000000000000e+01 5.0000000000000000e+01
ITEM: ATOMS id type x y z
1 1 20.9705 -1.39513 -1.12004
2 1 20.8693 -0.888332 -2.01304
3 1 21.0317 -1.85076 -2.34639
4 1 21.1782 -1.52257 -3.21255
5 1 21.6088 -0.61964 -3.09814
6 1 21.7327 -0.270879 -2.33582
7 1 21.5444 -0.0104436 -1.27932
8 1 22.5446 0.0599822 -1.50253
9 1 22.1596 0.754618 -2.22984
10 1 21.3469 0.680952 -2.83104
11 1 20.7858 0.358383 -2.0733
12 1 20.6851 0.793618 -1.20206
13 1 21.3776 1.14902 -1.11837
14 1 20.7763 1.71263 -0.660463
15 1 21.6278 1.63258 -0.229096
16 1 22.2487 0.807338 -0.570668
17 1 23.2158 0.533119 -0.623387
18 1 23.3019 -0.359774 -0.313175
19 1 22.5227 -0.191029 -0.226399
20 1 21.5618 -0.0797347 -0.194147
21 1 20.6337 0.234508 -0.448195
22 1 20.5959 1.13283 0.339597
23 1 20.373 2.15908 0.655129
24 1 21.3853 1.65428 0.836954
25 1 22.0134 1.39616 1.30949
26 1 21.4495 1.3761 1.94617
27 1 21.1073 0.580882 1.88082
28 1 21.9476 0.093457 1.52039
29 1 22.5977 -0.0145017 0.956599
30 1 21.7829 0.687882 0.617277
31 1 22.5817 1.02829 0.268423
32 1 23.4045 0.443403 0.478189
33 1 23.1372 0.848239 1.31392
34 1 22.973 1.25967 2.28978
35 1 22.3843 0.813093 2.22474
36 1 21.5919 0.940411 2.9353
37 1 22.0197 0.00102224 2.90124
38 1 22.956 -0.178997 2.3712
39 1 23.8456 -0.054099 1.83176
40 1 23.8374 -0.763254 1.36004
41 1 23.8943 -1.57331 0.372019
42 1 22.9558 -1.87915 0.689413
43 1 22.8744 -1.52408 -0.163946
44 1 23.0559 -2.32158 -0.61322
45 1 23.0722 -1.6746 -1.3785
46 1 22.1264 -1.29472 -1.11213
47 1 21.763 -1.13711 -0.163599
48 1 21.6712 -0.725708 0.732497
49 1 22.5247 -0.950223 1.30157
50 1 22.8548 -1.85192 1.92685
ITEM: TIMESTEP
12000
ITEM: NUMBER OF ATOMS
50
ITEM: BOX BOUNDS pp pp pp
-5.0000000000000000e+01 5.0000000000000000e+01
-5.0000000000000000e+01 5.0000000000000000e+01
-5.0000000000000000e+01 5.0000000000000000e+01
ITEM: ATOMS id type x y z
1 1 22.2134 -0.228028 -1.06023
2 1 22.9589 -0.030334 -0.562609
3 1 23.0072 -1.00191 -0.188845
4 1 23.5193 -0.327695 0.434647
5 1 23.2709 0.466819 0.762294
6 1 24.2035 0.303912 1.2485
7 1 24.4413 -0.67291 0.989924
8 1 25.015 -0.39218 0.317006
9 1 24.4249 -0.934144 -0.391135
10 1 24.2461 -0.0418178 -0.593146
11 1 24.2673 0.478801 0.17309
12 1 23.5364 1.023 -0.246286
13 1 23.9695 1.33176 0.662892
14 1 23.0385 1.54333 0.621252
15 1 22.2156 2.05506 0.170372
16 1 21.9255 1.34972 0.620034
17 1 22.076 1.03108 1.52966
18 1 22.29 0.374026 0.888421
19 1 22.4013 0.820722 -0.138
20 1 22.2865 0.80454 -1.15025
21 1 21.8574 1.55298 -0.790215
22 1 21.0219 1.76184 -0.210856
23 1 20.5255 1.1859 0.315156
24 1 19.913 1.94335 0.0544681
25 1 20.4563 2.675 -0.273949
26 1 19.9348 2.01843 -0.998214
27 1 20.6089 1.24488 -1.13122
28 1 19.8462 1.02035 -0.578628
29 1 19.7893 0.859824 -1.5454
30 1 20.2717 0.0780085 -1.15731
31 1 19.8634 -0.419463 -0.496945
32 1 20.6832 -0.17064 0.256139
33 1 21.2865 0.478715 0.518378
34 1 20.9988 0.840738 1.49243
35 1 20.3035 0.585769 1.17062
36 1 20.3088 0.221947 1.84504
37 1 19.3954 -0.204088 1.44378
38 1 19.9663 -0.926208 0.915101
39 1 20.093 -1.31329 0.0156741
40 1 20.942 -1.70097 -0.271579
41 1 22.1614 -1.73414 -0.264692
42 1 22.5184 -1.51406 0.696569
43 1 23.425 -1.28993 0.853892
44 1 24.2365 -2.05544 0.391507
45 1 23.2539 -2.08349 -0.222517
46 1 23.5229 -2.81201 -1.05445
47 1 23.3436 -1.75746 -1.39954
48 1 22.4508 -1.43278 -1.79765
49 1 22.0718 -2.14786 -1.28893
50 1 22.1429 -2.85967 -0.57424
ITEM: TIMESTEP
13000
ITEM: NUMBER OF ATOMS
50
ITEM: BOX BOUNDS pp pp pp
-5.0000000000000000e+01 5.0000000000000000e+01
-5.0000000000000000e+01 5.0000000000000000e+01
-5.0000000000000000e+01 5.0000000000000000e+01
ITEM: ATOMS id type x y z
1 1 21.1352 -1.0459 0.107234
2 1 21.2586 -0.0703762 0.187425
3 1 20.9123 0.484971 1.02362
4 1 20.6723 0.639993 1.99695
5 1 20.7469 -0.261666 1.94408
6 1 21.5342 -0.189833 2.71432
7 1 22.2717 0.306984 2.14928
8 1 22.87 0.100289 1.36497
9 1 23.0665 -0.618613 2.05189
10 1 23.5191 -0.823645 1.12249
11 1 23.6723 -0.435296 0.269273
12 1 23.8883 0.377336 0.127189
13 1 24.3555 1.05287 0.750097
14 1 23.8694 1.7873 1.20491
15 1 23.8148 0.936213 1.59129
16 1 23.3276 1.55551 2.22921
17 1 22.821 2.14849 1.47475
18 1 22.5596 1.16054 1.40293
19 1 23.0711 0.814983 0.580934
20 1 23.2541 1.76821 0.293496
21 1 22.2688 1.77281 -0.365597
22 1 22.0229 1.12488 0.327765
23 1 21.235 1.08932 -0.3437
24 1 21.7623 1.04198 -0.975868
25 1 21.4961 0.0811663 -0.817941
26 1 22.3908 0.312245 -0.428786
27 1 23.0446 1.09524 -0.463347
28 1 22.9996 0.572384 -1.22862
29 1 22.8381 -0.467086 -1.11532
30 1 23.3606 -0.704615 -1.83106
31 1 22.9634 -1.09828 -2.46701
32 1 22.6015 -0.154595 -2.33345
33 1 21.9544 -0.525555 -3.00343
34 1 21.4046 -0.914746 -2.08093
35 1 20.7731 -1.66271 -1.62295
36 1 21.6151 -1.9999 -1.78341
37 1 22.3342 -1.33466 -1.69933
38 1 21.9722 -1.11609 -0.843875
39 1 21.0182 -0.877125 -1.09777
40 1 20.1883 -1.11481 -0.436773
41 1 19.5096 -0.718171 -0.348073
42 1 19.893 -0.52974 -1.22662
43 1 19.4672 0.282971 -0.979051
44 1 20.4618 0.361471 -0.776988
45 1 20.2385 -0.198338 0.162341
46 1 20.8799 -0.504843 0.993974
47 1 21.9171 0.0846389 1.01547
48 1 22.3873 -0.586417 0.403999
49 1 22.0587 -1.3437 0.631987
50 1 22.8224 -1.65608 0.148045
ITEM: TIMESTEP
14000
ITEM: NUMBER OF ATOMS
50
ITEM: BOX BOUNDS pp pp pp
-5.0000000000000000e+01 5.0000000000000000e+01
-5.0000000000000000e+01 5.0000000000000000e+01
-5.0000000000000000e+01 5.0000000000000000e+01
ITEM: ATOMS id type x y z
1 1 20.1775 -0.253013 0.656798
2 1 19.5021 0.135673 0.289357
3 1 19.9896 1.03966 0.241422
4 1 19.919 1.68336 -0.428306
5 1 20.5629 1.96441 0.24515
6 1 21.124 1.20425 -0.34307
7 1 21.6029 0.693839 0.240204
8 1 20.9835 0.809267 0.574166
9 1 20.4189 0.630791 1.37514
10 1 20.0966 0.116851 2.19831
11 1 21.163 0.158557 2.33906
12 1 21.9126 0.87244 2.45644
13 1 22.2848 0.827475 1.43269
14 1 22.5905 1.14378 0.484968
15 1 21.8619 1.71648 0.541734
16 1 21.1214 1.82478 1.0975
17 1 21.1432 2.21287 1.98785
18 1 21.9504 1.96653 1.75048
19 1 21.2362 1.10116 1.76259
20 1 21.4402 0.343064 1.34011
21 1 21.2779 -0.668189 1.80827
22 1 21.5443 -1.24423 0.953894
23 1 22.5525 -1.39766 1.38759
24 1 22.2473 -0.386347 1.56049
25 1 22.6317 -0.0814609 0.690091
26 1 22.4506 -0.807471 0.48612
27 1 23.4894 -1.02374 0.786641
28 1 23.7001 0.0593956 0.561301
29 1 24.127 -0.496476 -0.0889452
30 1 24.5384 -0.295332 -0.814338
31 1 24.8273 0.588206 -1.02725
32 1 23.8256 0.498404 -0.64019
33 1 23.2089 -0.304032 -0.518495
34 1 23.0132 -0.207932 -1.40064
35 1 23.8546 -0.872804 -1.73262
36 1 23.821 -0.549162 -2.68334
37 1 23.6902 -1.29486 -2.8276
38 1 24.3956 -1.75283 -2.36865
39 1 24.0639 -2.41248 -1.76022
40 1 23.1989 -2.16689 -2.21955
41 1 22.3426 -1.44647 -2.40227
42 1 22.7143 -1.13303 -1.65387
43 1 22.1678 -1.21598 -0.60779
44 1 21.7759 -0.677193 -1.29533
45 1 21.4922 0.291067 -0.979179
46 1 21.6583 -0.300841 -0.105008
47 1 20.6612 0.242391 -0.194973
48 1 20.7449 -0.693853 -0.273942
49 1 20.4846 -0.249905 -1.07244
50 1 20.9186 -0.19253 -1.81033
ITEM: TIMESTEP
15000
ITEM: NUMBER OF ATOMS
50
ITEM: BOX BOUNDS pp pp pp
-5.0000000000000000e+01 5.0000000000000000e+01
-5.0000000000000000e+01 5.0000000000000000e+01
-5.0000000000000000e+01 5.0000000000000000e+01
ITEM: ATOMS id type x y z
1 1 21.752 1.58326 -1.19672
2 1 22.6824 1.53521 -1.45537
3 1 22.4839 0.51413 -1.05609
4 1 22.5353 0.941789 -0.0683108
5 1 22.3413 1.881 -0.00222593
6 1 21.5482 2.07177 0.0232769
7 1 20.7574 2.02174 -0.624663
8 1 20.4247 1.89783 0.226053
9 1 19.6759 1.0591 0.126081
10 1 20.0016 0.451228 0.947761
11 1 20.7237 -0.15943 1.23784
12 1 21.5578 -0.148517 0.936665
13 1 22.1892 -0.0607726 0.443253
14 1 21.7384 0.0421069 -0.18165
15 1 21.1807 0.909156 0.0903748
16 1 20.4131 1.00232 -0.611899
17 1 20.7223 0.189301 -1.18974
18 1 19.9658 -0.0463038 -2.1173
19 1 20.5233 -0.758624 -1.47225
20 1 21.1088 -1.65401 -0.915228
21 1 21.6369 -0.8788 -0.998303
22 1 20.7778 -0.579967 -0.442013
23 1 20.4624 0.16888 -0.0112423
24 1 20.0288 -0.682853 0.347302
25 1 20.4648 -1.50363 0.218313
26 1 21.0688 -0.853772 0.472836
27 1 21.5221 -1.15663 1.27974
28 1 21.6831 -0.436754 2.03592
29 1 21.0612 0.253789 2.245
30 1 21.5591 0.804817 1.70028
31 1 21.1527 1.7294 1.56395
32 1 21.8157 2.1605 1.19585
33 1 22.7186 1.43707 0.944692
34 1 23.6382 0.951206 0.55108
35 1 23.4989 0.736624 -0.42467
36 1 24.6741 0.314771 -0.0354292
37 1 24.3375 -0.540653 0.290721
38 1 24.7205 -1.34425 0.413097
39 1 24.8585 -1.9211 -0.183114
40 1 23.8259 -1.68033 -0.0462956
41 1 23.0763 -1.47038 -0.404722
42 1 22.1185 -1.64784 -0.381441
43 1 22.2137 -1.12686 0.251118
44 1 22.9957 -1.38432 0.85137
45 1 23.2012 -0.586457 0.112186
46 1 22.561 -0.411844 -0.646313
47 1 23.2001 -0.639169 -1.45769
48 1 23.8461 -0.738742 -0.754702
49 1 24.5769 -1.48428 -1.14257
50 1 24.8792 -0.760683 -0.684797
ITEM: TIMESTEP
16000
ITEM: NUMBER OF ATOMS
50
ITEM: BOX BOUNDS pp pp pp
-5.0000000000000000e+01 5.0000000000000000e+01
-5.0000000000000000e+01 5.0000000000000000e+01
-5.0000000000000000e+01 5.0000000000000000e+01
ITEM: ATOMS id type x y z
1 1 24.6697 -1.11318 -1.39211
2 1 24.3362 -0.160229 -1.60532
3 1 23.4593 -0.58352 -1.23221
4 1 24.0215 -0.0318259 -0.461832
5 1 23.8322 0.733455 -0.845541
6 1 23.096 1.57869 -0.942025
7 1 22.55 1.81842 -0.04661
8 1 22.3706 1.53639 0.892915
9 1 21.6136 1.37648 0.818459
10 1 21.9041 0.768135 0.295051
11 1 21.7719 0.792277 -0.72449
12 1 20.9219 0.217107 -0.207615
13 1 21.1418 -0.64163 -0.0874561
14 1 21.9245 -0.286386 0.473935
15 1 22.1722 -0.208577 -0.520535
16 1 22.8341 0.440566 -0.947492
17 1 22.6238 0.939023 -1.83496
18 1 23.3823 0.983659 -1.83537
19 1 23.4564 0.154158 -2.3125
20 1 22.5705 -0.0890661 -2.14045
21 1 22.1173 -0.434068 -1.51173
22 1 21.2994 -0.139844 -1.18761
23 1 21.5886 0.60095 -1.81685
24 1 20.7229 1.09733 -2.02396
25 1 20.3494 0.0817718 -1.86333
26 1 20.1502 0.617306 -1.14945
27 1 20.2613 -0.286369 -0.865069
28 1 20.0596 -1.1934 -1.51665
29 1 20.9608 -1.16154 -0.920654
30 1 21.1275 -1.8587 -0.206616
31 1 22.0475 -2.28295 -0.16556
32 1 21.8127 -1.48341 0.621866
33 1 20.6075 -1.29613 0.609557
34 1 20.5096 -0.279882 0.644854
35 1 20.3005 0.562866 0.785772
36 1 20.328 0.0551894 1.7489
37 1 21.156 0.295506 1.55203
38 1 22.0998 0.521378 1.29679
39 1 22.4395 0.859147 2.1406
40 1 21.9844 0.00286112 2.44924
41 1 22.2777 -0.447058 3.05559
42 1 21.4249 -1.02922 2.61869
43 1 21.2433 -0.966792 1.55559
44 1 21.9336 -0.492705 1.61539
45 1 22.7017 -0.496594 1.1054
46 1 23.0092 -0.355182 1.93631
47 1 23.587 0.384984 2.16622
48 1 23.3101 0.6505 1.28444
49 1 23.6196 -0.0277557 0.607182
50 1 22.8181 0.277847 0.0892292
ITEM: TIMESTEP
17000
ITEM: NUMBER OF ATOMS
50
ITEM: BOX BOUNDS pp pp pp
-5.0000000000000000e+01 5.0000000000000000e+01
-5.0000000000000000e+01 5.0000000000000000e+01
-5.0000000000000000e+01 5.0000000000000000e+01
ITEM: ATOMS id type x y z
1 1 24.1671 -0.792066 1.01935
2 1 24.722 0.0807689 0.843223
3 1 24.1472 0.277656 1.73821
4 1 23.1655 0.261873 1.85902
5 1 22.4617 1.03979 2.17726
6 1 22.2833 1.95476 1.88194
7 1 23.2395 2.20615 1.44705
8 1 23.1719 1.29773 1.24836
9 1 23.3275 1.23339 0.270164