ITEM: TIMESTEP
0
ITEM: NUMBER OF ATOMS
50
ITEM: BOX BOUNDS pp pp pp
-5.0000000000000000e+01 5.0000000000000000e+01
-5.0000000000000000e+01 5.0000000000000000e+01
-5.0000000000000000e+01 5.0000000000000000e+01
ITEM: ATOMS id type x y z
1 1 -2.39499 0 0
2 1 -1.39579 0 0
3 1 -0.397401 0 0
4 1 0.600913 0 0
5 1 1.59916 0 0
6 1 2.59732 0 0
7 1 3.59542 0 0
8 1 4.59344 0 0
9 1 5.5914 0 0
10 1 6.58927 0 0
11 1 7.58708 0 0
12 1 8.58481 0 0
13 1 9.58248 0 0
14 1 10.5801 0 0
15 1 11.5776 0 0
16 1 12.575 0 0
17 1 13.5724 0 0
18 1 14.5697 0 0
19 1 15.5669 0 0
20 1 16.5641 0 0
21 1 17.5611 0 0
22 1 18.5587 0 0
23 1 19.5562 0 0
24 1 20.5538 0 0
25 1 21.5513 0 0
26 1 22.5487 0 0
27 1 23.5462 0 0
28 1 24.5438 0 0
29 1 25.5413 0 0
30 1 26.5389 0 0
31 1 27.5359 0 0
32 1 28.5331 0 0
33 1 29.5303 0 0
34 1 30.5276 0 0
35 1 31.525 0 0
36 1 32.5224 0 0
37 1 33.5199 0 0
38 1 34.5175 0 0
39 1 35.5152 0 0
40 1 36.5129 0 0
41 1 37.5107 0 0
42 1 38.5086 0 0
43 1 39.5066 0 0
44 1 40.5046 0 0
45 1 41.5027 0 0
46 1 42.5008 0 0
47 1 43.4991 0 0
48 1 44.4974 0 0
49 1 45.4958 0 0
50 1 46.495 0 0
ITEM: TIMESTEP
1000
ITEM: NUMBER OF ATOMS
50
ITEM: BOX BOUNDS pp pp pp
-5.0000000000000000e+01 5.0000000000000000e+01
-5.0000000000000000e+01 5.0000000000000000e+01
-5.0000000000000000e+01 5.0000000000000000e+01
ITEM: ATOMS id type x y z
1 1 7.74102 0.300548 -0.367529
2 1 7.36201 0.357874 0.621295
3 1 7.91354 1.01176 1.37053
4 1 7.98942 1.20403 0.448916
5 1 8.74214 1.66095 0.952711
6 1 9.01566 0.836407 0.465448
7 1 8.76997 1.47054 -0.14848
8 1 9.30087 0.811538 -0.671456
9 1 9.84354 0.290047 -0.0264647
10 1 10.7908 0.641105 -0.210722
11 1 11.4463 0.304494 -0.874551
12 1 12.1914 0.235517 -0.221273
13 1 12.884 -0.072612 -0.764916
14 1 13.1518 -0.901422 -1.16671
15 1 13.9241 -0.533467 -0.565059
16 1 14.9302 -0.510013 -0.652256
17 1 15.8329 -0.475058 -0.94437
18 1 16.6245 -0.752113 -0.47473
19 1 17.6177 -0.905263 -0.483389
20 1 18.1683 -0.0927322 -0.25132
21 1 19.1283 -0.359234 -0.487138
22 1 19.2237 -0.547345 0.495415
23 1 19.6114 -1.31613 -0.0562089
24 1 20.2352 -1.084 0.743147
25 1 21.1226 -1.61993 0.697665
26 1 21.6935 -1.41636 -0.187367
27 1 22.6869 -1.64995 -0.218512
28 1 23.5255 -1.2689 -0.643485
29 1 24.2603 -1.76115 -1.09018
30 1 24.965 -1.14901 -1.38414
31 1 25.9595 -1.1907 -1.18813
32 1 26.944 -0.955854 -1.37551
33 1 27.8038 -0.622748 -1.38594
34 1 28.6638 -0.200257 -1.22199
35 1 29.4915 0.0528297 -0.698939
36 1 30.1858 0.799043 -0.481722
37 1 30.7995 0.77372 0.267071
38 1 31.2323 0.251029 -0.409893
39 1 31.6214 1.19653 -0.472163
40 1 32.2923 0.404027 -0.680431
41 1 32.6945 0.900836 0.0887077
42 1 33.6467 0.449538 0.0826485
43 1 34.1423 1.35784 0.184592
44 1 34.9637 1.04426 0.828379
45 1 36.0289 0.93119 0.817686
46 1 36.8891 0.394042 0.912276
47 1 36.6105 0.730057 1.9104
48 1 37.5676 0.511738 2.23607
49 1 36.8817 0.590644 3.00654
50 1 37.3884 -0.127885 3.67547
ITEM: TIMESTEP
2000
ITEM: NUMBER OF ATOMS
50
ITEM: BOX BOUNDS pp pp pp
-5.0000000000000000e+01 5.0000000000000000e+01
-5.0000000000000000e+01 5.0000000000000000e+01
-5.0000000000000000e+01 5.0000000000000000e+01
ITEM: ATOMS id type x y z
1 1 17.4571 0.436914 -0.642121
2 1 18.0413 1.22741 -0.484735
3 1 18.9554 1.51268 0.0579217
4 1 18.9233 0.590718 0.234526
5 1 19.7038 0.669064 0.792526
6 1 20.1405 1.22417 1.42822
7 1 19.3896 1.96355 1.09343
8 1 20.0768 1.5389 0.430917
9 1 19.856 1.28358 -0.466261
10 1 19.3689 0.683449 -0.956913
11 1 18.4475 0.295588 -0.610707
12 1 18.068 -0.766831 -0.648788
13 1 18.2016 -1.85963 -0.498814
14 1 19.1239 -2.15417 -0.742406
15 1 19.0217 -1.39148 -1.4546
16 1 19.0182 -0.423166 -1.30325
17 1 19.2123 -0.682172 -0.256579
18 1 19.7078 0.0474272 -0.223211
19 1 20.3198 -0.321749 0.503269
20 1 21.226 -0.240669 -0.0395374
21 1 20.5615 -0.670764 -0.81479
22 1 20.7514 -1.06257 -1.61608
23 1 21.245 -0.323111 -1.99051
24 1 21.5028 -0.119378 -1.00782
25 1 21.6988 -1.02347 -1.06282
26 1 21.2941 -1.31306 -0.352614
27 1 21.9684 -1.98574 -0.452636
28 1 22.2146 -1.92221 -1.36676
29 1 22.7347 -0.961435 -1.27
30 1 22.5398 -0.0792228 -1.59284
31 1 23.3421 0.190874 -2.07598
32 1 23.7639 -0.386839 -1.37914
33 1 24.4421 -0.257168 -0.591613
34 1 25.4164 -0.500687 -0.351312
35 1 25.4123 -0.884328 0.465616
36 1 26.3083 -1.04909 0.0428816
37 1 26.7994 -0.368079 0.575513
38 1 25.9404 0.0684431 0.87668
39 1 25.1487 0.309921 0.284998
40 1 24.3343 0.500303 0.687174
41 1 23.6797 -0.0145052 1.33528
42 1 24.4358 -0.582014 0.87669
43 1 25.2928 -0.361551 1.50883
44 1 24.6935 0.0149699 2.24263
45 1 25.3205 0.678005 1.69076
46 1 25.9968 1.33761 2.15928
47 1 26.4609 2.23744 1.95293
48 1 25.749 2.00246 1.2655
49 1 24.863 1.67415 1.52909
50 1 24.3293 1.21744 2.21816
ITEM: TIMESTEP
3000
ITEM: NUMBER OF ATOMS
50
ITEM: BOX BOUNDS pp pp pp
-5.0000000000000000e+01 5.0000000000000000e+01
-5.0000000000000000e+01 5.0000000000000000e+01
-5.0000000000000000e+01 5.0000000000000000e+01
ITEM: ATOMS id type x y z
1 1 19.5964 0.396547 -1.05766
2 1 20.5377 0.668865 -0.507101
3 1 19.8512 0.648829 0.18408
4 1 20.2283 1.54141 0.254587
5 1 21.0356 2.11461 0.267705
6 1 21.4378 1.26673 0.0154179
7 1 21.8498 1.31742 0.884082
8 1 22.4567 1.77001 0.0670085
9 1 22.1523 1.25618 -0.717335
10 1 21.7496 1.45152 -1.7405
11 1 21.8303 0.913696 -2.56045
12 1 21.1754 1.19355 -3.27108
13 1 20.8863 0.322566 -3.43823
14 1 21.5656 -0.305081 -3.09316
15 1 21.0718 -1.14616 -2.68021
16 1 21.935 -0.893936 -2.3898
17 1 22.6074 -0.846591 -1.57841
18 1 23.1197 -1.25006 -2.27352
19 1 23.7996 -0.632864 -1.829
20 1 24.2927 0.116871 -1.93492
21 1 23.7246 0.750997 -1.62973
22 1 24.3962 0.803987 -1.05488
23 1 24.0968 0.317988 -0.261561
24 1 24.1372 -0.465271 -0.818546
25 1 23.1681 -0.357733 -0.6634
26 1 23.5772 -0.368206 0.423476
27 1 23.9588 -1.28808 0.426823
28 1 23.6296 -1.5081 -0.445661
29 1 22.6719 -1.35006 -0.232026
30 1 22.9407 -1.20089 0.672518
31 1 23.4155 -0.93216 1.5775
32 1 22.9175 -1.38732 2.06514
33 1 22.6184 -0.867266 2.97097
34 1 22.1639 -1.53414 3.60628
35 1 21.7051 -0.627025 3.47769
36 1 21.9059 -0.160538 2.77862
37 1 21.909 -0.544846 1.96277
38 1 22.596 0.13002 1.74965
39 1 22.6897 -0.226863 0.914534
40 1 22.3192 -0.368331 -0.0391618
41 1 21.7038 -1.17402 -0.0586544
42 1 21.0064 -0.884531 -0.688126
43 1 20.1351 -0.791412 -0.0660483
44 1 20.7702 -0.361757 0.388255
45 1 21.4588 -0.160944 0.943728
46 1 21.2372 0.438126 1.52411
47 1 20.7556 1.31752 1.29121
48 1 19.8136 1.21515 1.5032
49 1 20.4822 0.96326 2.31946
50 1 21.4164 0.718342 2.76035
ITEM: TIMESTEP
4000
ITEM: NUMBER OF ATOMS
50
ITEM: BOX BOUNDS pp pp pp
-5.0000000000000000e+01 5.0000000000000000e+01
-5.0000000000000000e+01 5.0000000000000000e+01
-5.0000000000000000e+01 5.0000000000000000e+01
ITEM: ATOMS id type x y z
1 1 21.7216 1.59126 -1.51422
2 1 21.6087 0.837598 -0.937546
3 1 21.1088 0.149868 -0.637401
4 1 22.02 -0.377399 -0.684762
5 1 21.9402 -1.30017 -0.791339
6 1 22.6398 -1.74124 -1.36682
7 1 22.4529 -0.946343 -1.9449
8 1 23.043 -0.0637898 -1.70726
9 1 23.1653 0.815274 -1.19084
10 1 23.3227 1.53698 -2.00868
11 1 23.8538 0.8287 -2.3854
12 1 24.2119 0.873634 -1.36157
13 1 23.9399 1.70095 -0.859064
14 1 24.7858 1.40659 -0.248234
15 1 24.718 0.494368 -0.257998
16 1 25.0561 0.194141 -1.2435
17 1 24.4976 -0.0275163 -2.03717
18 1 23.93 -0.255179 -1.28425
19 1 24.6141 -1.06271 -1.01377
20 1 24.3954 -1.01029 -0.178455
21 1 23.9275 -0.299278 0.347571
22 1 23.1588 0.0490264 0.823509
23 1 22.9577 1.005 0.435696
24 1 22.5051 0.756604 -0.410943
25 1 23.1852 0.0761171 -0.491428
26 1 22.9958 -0.718444 -0.894278
27 1 23.341 -1.14842 0.00153366
28 1 22.4394 -1.12999 0.592022
29 1 22.8402 -0.919226 1.31951
30 1 23.2225 -1.15764 2.15361
31 1 22.4735 -1.5518 2.81049
32 1 21.7326 -1.68348 3.33795
33 1 21.7496 -1.02576 2.4317
34 1 20.878 -1.00158 2.77956
35 1 20.8372 0.02061 2.69813
36 1 21.276 -0.210805 1.74194
37 1 22.0787 0.034571 1.36952
38 1 21.8379 1.10638 1.23817
39 1 21.0965 1.89304 1.11726
40 1 20.5172 1.13251 1.04675
41 1 20.4907 0.930989 -0.0698311
42 1 21.337 1.17017 0.326825
43 1 21.144 0.21644 0.682901
44 1 20.2034 -0.0293716 0.586856
45 1 19.2829 0.119266 0.318477
46 1 18.4245 -0.223441 -0.314089
47 1 17.4704 -0.0824886 0.208222
48 1 17.5434 0.191058 -0.586329
49 1 17.3599 -0.386092 -1.34873
50 1 17.1676 -0.778655 -0.5994
ITEM: TIMESTEP
5000
ITEM: NUMBER OF ATOMS
50
ITEM: BOX BOUNDS pp pp pp
-5.0000000000000000e+01 5.0000000000000000e+01
-5.0000000000000000e+01 5.0000000000000000e+01
-5.0000000000000000e+01 5.0000000000000000e+01
ITEM: ATOMS id type x y z
1 1 23.2138 2.39654 -0.747901
2 1 22.117 2.27071 -0.361164
3 1 21.9585 1.61709 -1.11733
4 1 22.6173 0.915872 -1.50522
5 1 23.0624 0.66326 -0.67211
6 1 23.69 1.29688 -0.895479
7 1 24.5753 1.00818 -1.03857
8 1 24.2574 0.04397 -1.08283
9 1 24.2096 -0.771366 -0.704072
10 1 24.6419 -0.16446 -0.138925
11 1 24.7348 -0.409828 0.942885
12 1 25.4201 -1.17659 1.22316
13 1 25.2868 -0.936703 2.18934
14 1 24.302 -0.507693 1.9197
15 1 23.8598 0.377647 1.66517
16 1 23.2867 0.0940192 2.4809
17 1 22.5445 0.543237 2.75531
18 1 22.3632 1.49806 2.68141
19 1 21.7654 1.21175 1.93854
20 1 22.385 1.28041 1.5186
21 1 22.594 0.433916 1.27512
22 1 22.4305 -0.288296 1.84241
23 1 22.9949 -0.673947 1.19613
24 1 23.3726 -0.320401 0.409251
25 1 23.0499 -0.844169 -0.41409
26 1 22.0577 -0.837933 -0.0335796
27 1 21.7936 0.0891449 -0.380696
28 1 21.705 0.514099 0.472049
29 1 21.5461 0.379017 1.34342
30 1 21.5934 -0.431298 0.828602
31 1 21.7414 -1.34951 1.04757
32 1 20.7999 -1.27349 0.515032
33 1 20.597 -0.332371 0.950841
34 1 20.4014 0.455093 1.62908
35 1 19.9193 0.60338 0.733131
36 1 19.5524 -0.227529 1.38284
37 1 19.1394 -0.433335 0.363255
38 1 20.0533 -0.426868 0.0874901
39 1 20.5734 0.319998 -0.351331
40 1 20.7905 0.327233 -1.36962
41 1 20.0887 0.126794 -1.93336
42 1 20.6512 0.142856 -2.74104
43 1 21.6557 0.200957 -2.6912
44 1 21.3266 -0.766828 -2.30676
45 1 21.086 -0.818338 -1.31172
46 1 20.9409 -1.62141 -1.74087
47 1 19.9446 -1.3905 -1.57719
48 1 19.1611 -1.30846 -2.38962
49 1 19.9844 -0.744572 -2.53057
50 1 20.6636 -0.754234 -3.35602
ITEM: TIMESTEP
6000
ITEM: NUMBER OF ATOMS
50
ITEM: BOX BOUNDS pp pp pp
-5.0000000000000000e+01 5.0000000000000000e+01
-5.0000000000000000e+01 5.0000000000000000e+01
-5.0000000000000000e+01 5.0000000000000000e+01
ITEM: ATOMS id type x y z
1 1 23.4199 3.17337 3.73165
2 1 24.2933 3.35399 3.26957
3 1 23.9956 2.56651 2.83288
4 1 24.1124 1.80561 3.51808
5 1 24.8267 1.47763 3.46147
6 1 24.8179 1.14831 4.33058
7 1 24.077 0.627289 3.81197
8 1 24.2227 0.74726 2.88987
9 1 23.3888 0.922794 2.51186
10 1 23.3187 0.237556 1.80476
11 1 22.7047 -0.424878 1.83556
12 1 22.1896 -1.22529 1.70297
13 1 21.7794 -0.325807 1.48339
14 1 21.8583 -0.575261 0.44012
15 1 21.8293 0.189651 -0.00851631
16 1 22.2178 0.740855 -0.778607
17 1 21.4834 1.43055 -0.665367
18 1 21.8617 1.21377 0.355263
19 1 20.8437 1.26215 0.646972
20 1 20.7122 1.35765 1.54003
21 1 21.026 0.578739 2.12961
22 1 21.8489 0.212353 2.51332
23 1 22.3942 0.683153 1.86578
24 1 22.4542 0.55253 0.82439
25 1 23.3871 0.929864 0.773946
26 1 23.5334 0.0448469 0.191632
27 1 23.1469 -0.452667 -0.619188
28 1 22.6931 0.0207773 -1.33909
29 1 23.3675 0.0899779 -2.08518
30 1 22.5478 0.296125 -2.37467
31 1 22.4013 0.305657 -3.37696
32 1 21.6732 0.782401 -2.85303
33 1 20.8378 1.01569 -3.16881
34 1 20.9633 0.0376891 -3.25055
35 1 21.7702 -0.42213 -2.98549
36 1 21.3525 -0.527951 -1.98645
37 1 20.5362 -0.549561 -2.52728
38 1 19.7047 -0.72081 -1.81284
39 1 20.2022 0.0313695 -1.43558
40 1 20.8195 0.467441 -2.01436
41 1 21.3609 0.29898 -1.31288
42 1 20.8904 -0.494443 -0.976009
43 1 21.7528 -1.17356 -0.66136
44 1 20.9903 -1.6518 -0.757584
45 1 20.1598 -2.07877 -0.673502
46 1 20.5622 -2.76166 -1.31822
47 1 20.8287 -2.83122 -2.41805
48 1 20.1613 -3.59044 -2.10349
49 1 20.9661 -4.25937 -2.22619
50 1 20.2143 -4.5369 -2.73642
ITEM: TIMESTEP
7000
ITEM: NUMBER OF ATOMS
50
ITEM: BOX BOUNDS pp pp pp
-5.0000000000000000e+01 5.0000000000000000e+01
-5.0000000000000000e+01 5.0000000000000000e+01
-5.0000000000000000e+01 5.0000000000000000e+01
ITEM: ATOMS id type x y z
1 1 21.1313 -2.87365 4.52907
2 1 21.3575 -1.9555 4.0784
3 1 21.6479 -1.14715 3.62401
4 1 22.248 -0.161292 3.44597
5 1 21.5364 0.530228 2.86225
6 1 21.2722 1.39278 3.30625
7 1 22.2119 1.9562 3.0952
8 1 21.3898 2.38508 3.09771
9 1 21.3289 2.48357 2.12049
10 1 20.8126 1.84459 1.39374
11 1 21.2606 1.4545 0.517227
12 1 21.2566 0.868842 1.38013
13 1 21.456 -0.0338421 1.75283
14 1 21.2699 0.147212 0.653258
15 1 20.7262 0.529018 0.0315688
16 1 20.1154 1.05085 0.767472
17 1 20.4644 1.99994 0.341867
18 1 19.6294 1.4775 -0.236479
19 1 19.5083 0.447053 0.123454
20 1 19.7874 -0.456913 -0.308949
21 1 20.6846 -0.475948 -0.430389
22 1 20.9594 0.326989 -0.959226
23 1 21.6158 0.962148 -1.34641
24 1 21.9439 0.500327 -0.525552
25 1 22.1779 0.828407 0.359622
26 1 22.9664 0.494598 -0.152711
27 1 22.893 0.849973 -1.11878
28 1 23.4048 0.0909299 -1.05117
29 1 23.2494 -0.873164 -0.918913
30 1 23.6219 -1.30034 0.0286751
31 1 23.6131 -0.345433 0.00965651
32 1 24.515 -0.692245 0.146077
33 1 25.163 -0.931081 -0.574656
34 1 24.4669 -0.347347 -0.822785
35 1 24.4604 -0.799877 -1.66825
36 1 24.4362 -1.3587 -2.54169
37 1 23.5589 -1.53123 -2.55923
38 1 23.9246 -0.496089 -2.52471
39 1 24.3265 0.197947 -1.76031
40 1 23.3891 0.328536 -2.088
41 1 22.5958 -0.406087 -2.40398
42 1 21.8917 0.227706 -2.01003
43 1 21.6239 0.11964 -2.94542
44 1 20.7336 0.293586 -2.40001
45 1 20.4468 -0.464518 -1.81071
46 1 21.3684 -0.684843 -1.50285
47 1 21.8658 -0.732025 -0.665598
48 1 22.4181 -1.57367 -0.37127
49 1 22.1792 -2.42838 -0.836925
50 1 21.595 -1.71883 -1.12991
ITEM: TIMESTEP
8000
ITEM: NUMBER OF ATOMS
50
ITEM: BOX BOUNDS pp pp pp
-5.0000000000000000e+01 5.0000000000000000e+01
-5.0000000000000000e+01 5.0000000000000000e+01
-5.0000000000000000e+01 5.0000000000000000e+01
ITEM: ATOMS id type x y z
1 1 19.5495 0.075463 -1.05128
2 1 19.4665 0.651898 -0.220245
3 1 19.1631 1.62038 0.0588659
4 1 19.3423 1.00392 0.80253
5 1 19.8217 0.146486 1.32395
6 1 19.8105 -0.792668 1.52736
7 1 19.3811 -1.16844 0.627654
8 1 19.9951 -1.82126 0.933652
9 1 20.3581 -1.42674 0.0459703
10 1 21.17 -1.22765 0.738763
11 1 21.5604 -0.3895 0.177327
12 1 21.5713 0.144107 1.10635
13 1 20.891 0.497118 0.328785
14 1 20.1964 -0.314689 0.338341
15 1 20.0026 -0.750232 -0.603975
16 1 19.5237 -0.911565 -1.36059
17 1 19.6271 -0.619867 -2.35566
18 1 19.742 0.296041 -2.0133
19 1 20.7397 0.642315 -2.1258
20 1 21.1574 -0.047252 -2.70906
21 1 21.2638 -0.185601 -1.69445
22 1 20.8353 0.0267106 -0.816773
23 1 21.7159 0.431985 -1.02413
24 1 22.0682 0.496121 -0.09257
25 1 22.9864 0.835969 0.197071
26 1 22.8457 1.15802 1.01332
27 1 23.9616 1.10821 0.884219
28 1 24.5464 0.930824 1.67121
29 1 23.5009 0.665964 1.79146
30 1 22.3241 0.544099 1.62536
31 1 22.6559 0.6349 2.51174
32 1 22.8188 -0.214799 2.25079
33 1 23.637 0.0219604 2.75435
34 1 24.2338 -0.249953 1.86095
35 1 23.677 -0.391977 0.934065
36 1 23.9243 -0.77107 0.0867713
37 1 24.5899 -0.113406 0.293857
38 1 25.3534 0.0416749 -0.307251
39 1 24.8217 -0.684894 -0.811909
40 1 24.5479 -0.151491 -1.56326
41 1 25.2328 0.648927 -1.65933
42 1 24.9622 0.346423 -2.60891
43 1 24.246 0.985789 -2.56831
44 1 23.4307 0.539299 -2.1609
45 1 22.8106 0.12835 -1.37763
46 1 23.5887 0.151993 -0.818641
47 1 23.1027 -0.226633 0.00891591
48 1 22.3683 -0.904676 0.468161
49 1 22.0588 -0.593747 1.45275
50 1 21.3216 -0.816831 2.12942
ITEM: TIMESTEP
9000
ITEM: NUMBER OF ATOMS
50
ITEM: BOX BOUNDS pp pp pp
-5.0000000000000000e+01 5.0000000000000000e+01
-5.0000000000000000e+01 5.0000000000000000e+01
-5.0000000000000000e+01 5.0000000000000000e+01
ITEM: ATOMS id type x y z
1 1 19.5159 1.22273 -0.602427
2 1 20.1202 0.553633 -0.848253
3 1 19.8906 -0.0752563 -1.65811
4 1 20.6232 0.160813 -2.24633
5 1 20.8741 -0.885345 -2.33141
6 1 20.2251 -1.0752 -1.67049
7 1 19.3985 -1.49006 -2.04334
8 1 18.6963 -1.71469 -1.27545
9 1 18.6699 -0.82567 -1.32849
10 1 18.7499 -0.212958 -0.616688
11 1 19.6046 -0.638661 -0.814188
12 1 20.5508 -0.408905 -0.955733
13 1 21.1587 0.106695 -1.43938
14 1 21.7501 -0.248968 -2.0824
15 1 21.9339 -1.16095 -2.52901
16 1 21.7328 -0.75995 -3.21542
17 1 21.0711 -0.191984 -3.41321
18 1 21.4589 0.320958 -4.10817
19 1 22.1277 0.95523 -3.5685
20 1 21.0022 0.984292 -3.46114
21 1 21.5857 0.480261 -2.83662
22 1 22.4638 0.805553 -2.45293
23 1 22.4189 1.36158 -1.57622
24 1 22.8123 1.26896 -0.581709
25 1 22.6752 0.807025 0.3562
26 1 21.5732 0.796044 0.553023
27 1 21.6589 0.0432802 1.08321
28 1 22.0173 0.765286 1.83854
29 1 21.7113 0.286662 2.76081
30 1 22.6106 0.228735 2.63051
31 1 22.7399 -0.52392 3.26177
32 1 23.664 0.00971004 3.20246
33 1 23.3202 0.937146 3.6004
34 1 24.2237 1.26306 3.71843
35 1 25.1921 0.964862 3.74446
36 1 24.9918 0.178413 3.04689
37 1 24.3799 -0.571679 3.03232
38 1 24.4953 -0.278498 2.02408
39 1 24.5453 0.768835 2.14552
40 1 23.6687 0.227004 1.80563
41 1 23.2841 -0.580913 2.04247
42 1 23.4608 -1.41164 2.48094
43 1 23.8527 -1.3505 1.43717
44 1 24.1241 -0.993895 0.651163
45 1 24.5039 0.0643255 0.843584
46 1 23.4912 0.117275 0.628674
47 1 22.778 -0.356299 1.01204
48 1 22.2548 -0.188039 0.0961464
49 1 21.8244 0.319109 -0.492676
50 1 21.0234 -0.0534951 0.151866
ITEM: TIMESTEP
10000
ITEM: NUMBER OF ATOMS
50
ITEM: BOX BOUNDS pp pp pp
-5.0000000000000000e+01 5.0000000000000000e+01
-5.0000000000000000e+01 5.0000000000000000e+01
-5.0000000000000000e+01 5.0000000000000000e+01
ITEM: ATOMS id type x y z
1 1 24.4637 -1.61458 -4.38798
2 1 23.7204 -0.87741 -4.90799
3 1 23.735 0.0989915 -4.64799
4 1 23.3851 -0.379332 -3.64756
5 1 22.5673 -0.0708627 -4.34758
6 1 22.4066 -0.486003 -3.54705
7 1 22.3172 -0.392308 -2.49992
8 1 21.3157 -0.63226 -2.60713
9 1 21.293 -0.051722 -1.8485
10 1 20.7139 -0.847878 -1.79229
11 1 21.0441 -0.862638 -0.967032
12 1 21.9726 -1.08637 -0.728212
13 1 22.0438 -0.282711 -1.36002
14 1 22.7605 -0.046771 -1.6872
15 1 23.4923 -0.377642 -1.01312
16 1 22.6177 -0.0609024 -0.452151
17 1 22.7524 0.851823 -0.817984
18 1 22.655 1.27048 0.216021
19 1 21.6993 1.59967 0.0942962
20 1 21.923 1.62085 -0.769957
21 1 21.1186 1.07109 -1.17142
22 1 21.128 0.163548 -0.785248
23 1 21.3708 -0.451238 -0.157782
24 1 22.2385 -0.881754 0.297504
25 1 21.8815 -0.265307 0.957274
26 1 21.8705 0.776353 1.2371
27 1 21.4936 0.527888 0.328013
28 1 20.6401 0.784825 0.233158
29 1 20.6933 1.45668 1.08632
30 1 21.2836 1.7551 1.78519
31 1 21.1607 0.885847 2.18423
32 1 21.6062 1.46098 2.98983
33 1 21.6288 0.534516 3.34315
34 1 22.1535 0.935868 3.94437
35 1 22.748 0.456848 3.17105
36 1 23.6897 0.165269 3.08762
37 1 24.2085 0.592718 2.49974
38 1 23.7744 1.3374 2.076
39 1 22.6629 1.2156 2.29592
40 1 22.2007 0.447991 2.16072
41 1 23.0738 -0.189437 2.08891
42 1 22.2688 -0.710042 2.39062
43 1 21.5824 -0.998859 1.55634
44 1 20.603 -0.750755 1.9456
45 1 20.6505 -0.302627 1.22537
46 1 20.2875 -0.40516 0.296552
47 1 20.7563 -1.43315 0.531323
48 1 20.9309 -1.73886 -0.471423
49 1 21.5977 -1.82021 0.0335284
50 1 22.3186 -1.99355 0.55981
ITEM: TIMESTEP
11000
ITEM: NUMBER OF ATOMS
50
ITEM: BOX BOUNDS pp pp pp
-5.0000000000000000e+01 5.0000000000000000e+01
-5.0000000000000000e+01 5.0000000000000000e+01
-5.0000000000000000e+01 5.0000000000000000e+01
ITEM: ATOMS id type x y z
1 1 24.6745 -1.5657 -3.2968
2 1 23.9166 -0.842202 -3.65199
3 1 24.5704 -0.790598 -4.45458
4 1 25.2947 -0.604962 -3.61642
5 1 26.138 -0.106624 -3.36502
6 1 26.3767 -1.07369 -2.77343
7 1 26.8313 -0.901786 -1.95748
8 1 26.1627 -0.111118 -1.85074
9 1 25.0438 -0.371211 -2.09949
10 1 24.2456 -0.00719664 -1.63997
11 1 24.996 -0.288066 -1.05177
12 1 25.056 0.587278 -1.39824
13 1 24.441 0.528605 -0.539675
14 1 23.4859 0.286027 -0.809018
15 1 23.6498 1.22222 -0.544303
16 1 24.5649 1.7485 -0.736306
17 1 23.8688 2.22078 -0.0960697
18 1 22.9349 1.75905 0.0313791
19 1 23.1388 1.00762 0.566878
20 1 23.4143 0.200209 0.26148
21 1 22.5871 -0.114035 -0.189931
22 1 22.3022 -0.869386 -0.954032
23 1 21.5802 -0.609016 -0.384185
24 1 21.5264 -0.605424 0.604619
25 1 21.9574 0.303567 0.696563
26 1 21.6711 0.170209 1.75235
27 1 21.2613 0.952029 1.89808
28 1 21.1644 1.2089 0.905566
29 1 20.7562 0.424114 1.14703
30 1 20.4788 0.010306 0.0901297
31 1 19.5608 -0.0964863 0.108608
32 1 19.7208 0.351856 0.892683
33 1 19.9899 1.21263 1.54206
34 1 19.3041 1.07318 2.28709
35 1 18.5021 0.567257 2.82653
36 1 19.1217 0.118028 3.17778
37 1 20.0355 -0.486784 2.93259
38 1 20.8965 -0.125164 2.95796
39 1 20.2351 0.576016 3.03069
40 1 19.7869 0.168221 1.99244
41 1 19.0664 -0.66642 2.38532
42 1 18.5017 -0.0692968 1.70201
43 1 17.8198 -0.610189 1.65491
44 1 18.4897 -1.21005 1.67692
45 1 19.1894 -0.707763 1.19058
46 1 20.0181 -0.771906 0.80224
47 1 20.6207 -1.34818 0.233476
48 1 20.7411 -1.33335 -0.724521
49 1 21.1804 -0.624127 -1.3768
50 1 21.6298 0.214128 -1.8372
ITEM: TIMESTEP
12000
ITEM: NUMBER OF ATOMS
50
ITEM: BOX BOUNDS pp pp pp
-5.0000000000000000e+01 5.0000000000000000e+01
-5.0000000000000000e+01 5.0000000000000000e+01
-5.0000000000000000e+01 5.0000000000000000e+01
ITEM: ATOMS id type x y z
1 1 28.1894 -2.27497 -2.9384
2 1 27.296 -1.73687 -3.33019
3 1 26.8077 -0.900697 -3.04293
4 1 27.6489 -0.799737 -3.7567
5 1 27.9868 -1.25062 -2.83661
6 1 28.5744 -0.745255 -2.44196
7 1 27.5272 -0.682693 -2.10914
8 1 26.7054 -1.14206 -1.73607
9 1 25.7762 -1.06599 -2.04489
10 1 25.237 -1.0944 -1.33128
11 1 24.5027 -1.18692 -0.783698
12 1 24.2416 -0.44324 -0.272875
13 1 24.0029 0.0960609 0.480895
14 1 23.9046 0.561688 -0.343293
15 1 23.0028 0.357417 0.177327
16 1 23.481 0.837779 1.00662
17 1 22.6358 1.41465 1.09184
18 1 22.1398 1.16337 1.96852
19 1 22.6629 2.15737 1.85648
20 1 21.6487 2.27237 1.85297
21 1 21.3894 1.65666 2.51947
22 1 21.7851 1.24454 3.3435
23 1 22.6538 1.32254 2.89585
24 1 22.2347 0.335356 2.90807
25 1 21.4654 -0.0707459 2.5618
26 1 21.394 -0.114088 3.64235
27 1 20.6206 0.248468 3.1872
28 1 20.6012 1.22149 3.30492
29 1 20.508 1.13558 2.27969
30 1 19.602 1.88993 2.09856
31 1 19.7264 1.95579 1.07546
32 1 20.0462 1.13766 0.637669
33 1 19.6138 1.19831 -0.155492
34 1 18.7163 1.10608 -0.521391
35 1 18.0862 0.645509 -1.13291
36 1 17.7301 -0.268526 -0.625931
37 1 18.2863 -0.865153 0.074784
38 1 19.2662 -0.788832 -0.0684143
39 1 19.3933 -0.307314 0.763368
40 1 18.7747 0.138833 -0.0582246
41 1 19.029 0.17028 -1.1181
42 1 18.6991 -0.444995 -1.89259
43 1 18.568 -1.36459 -1.89509
44 1 18.8399 -1.0794 -0.899051
45 1 19.4923 -1.68897 -1.48637
46 1 19.6851 -0.934343 -1.75138
47 1 20.0094 -0.345368 -0.822472
48 1 20.3157 -1.14233 -0.868611
49 1 20.9431 -0.854619 -0.209025
50 1 21.0531 -0.674996 0.745722
ITEM: TIMESTEP
13000
ITEM: NUMBER OF ATOMS
50
ITEM: BOX BOUNDS pp pp pp
-5.0000000000000000e+01 5.0000000000000000e+01
-5.0000000000000000e+01 5.0000000000000000e+01
-5.0000000000000000e+01 5.0000000000000000e+01
ITEM: ATOMS id type x y z
1 1 27.0538 -0.752667 -2.58232
2 1 27.2174 -0.748489 -1.44151
3 1 26.4345 -0.829007 -1.79168
4 1 26.2817 0.102329 -1.5378
5 1 26.0562 -0.29951 -0.641175
6 1 26.374 -1.25474 -0.564198
7 1 26.2137 -1.37503 0.332859
8 1 26.4855 -1.88312 1.15432
9 1 26.2852 -0.809042 1.05359
10 1 25.4521 -1.33667 1.38442
11 1 25.1318 -0.480423 1.12311
12 1 25.8037 0.0873569 1.63161
13 1 25.3801 0.810853 1.23336
14 1 24.5143 0.831587 0.541897
15 1 24.5407 -0.0112264 0.354065
16 1 23.7038 0.00946973 0.88444
17 1 23.0053 -0.918387 0.837854
18 1 22.075 -0.819212 0.725662
19 1 22.3764 0.15269 0.345111
20 1 21.4682 0.244447 0.529896
21 1 21.3369 1.12302 0.720653
22 1 20.5296 1.32139 0.477228
23 1 19.4485 1.66816 0.839803
24 1 18.6927 1.81591 1.4615
25 1 19.0244 0.849036 1.27813
26 1 19.5427 1.39774 1.90975
27 1 20.1502 0.880568 1.36542
28 1 20.1699 0.0232596 0.70845
29 1 19.4408 -0.248108 1.37762
30 1 19.2605 -0.972188 0.697257
31 1 18.8907 -0.393861 -0.187
32 1 19.8859 -0.134925 -0.464162
33 1 19.5665 0.632995 0.0839623
34 1 19.3479 1.17826 -0.735285
35 1 18.9448 0.261518 -1.16507
36 1 18.2916 1.06102 -1.06794
37 1 18.7415 0.911679 -2.04408
38 1 19.4207 1.67934 -2.14455
39 1 20.1808 1.66057 -2.75958
40 1 20.4376 1.76592 -1.7945
41 1 20.2677 0.799319 -1.50941
42 1 20.4303 0.936871 -0.50902
43 1 20.9258 -0.0108627 -0.352573
44 1 21.8332 -0.433288 -0.680412
45 1 21.0481 -0.93249 -1.27981
46 1 20.7312 -1.24013 -0.465663
47 1 20.3532 -1.67438 0.376842
48 1 20.8321 -1.29641 1.17702
49 1 21.4101 -1.36467 0.206069
50 1 21.5105 -1.98646 0.905835
ITEM: TIMESTEP
14000
ITEM: NUMBER OF ATOMS
50
ITEM: BOX BOUNDS pp pp pp
-5.0000000000000000e+01 5.0000000000000000e+01
-5.0000000000000000e+01 5.0000000000000000e+01
-5.0000000000000000e+01 5.0000000000000000e+01
ITEM: ATOMS id type x y z
1 1 24.3166 -0.0920842 1.53779
2 1 25.1472 0.0956342 1.03436
3 1 25.9636 -0.0258223 1.55942
4 1 25.2904 0.421256 2.09047
5 1 24.9707 -0.449818 2.24169
6 1 25.1343 -1.32874 2.51457
7 1 24.2998 -1.62408 1.89289
8 1 23.8222 -1.00151 2.68273
9 1 23.2516 -0.86074 1.90971
10 1 22.8391 -1.62869 1.84781
11 1 22.3165 -1.56842 0.929424
12 1 22.2364 -0.891772 1.53656
13 1 22.7422 -0.0501371 1.93415
14 1 22.0051 0.158158 1.46586
15 1 22.8093 0.150836 0.818798
16 1 23.0351 0.374609 -0.0441681
17 1 23.5645 0.98786 0.442602
18 1 22.7673 1.4687 0.725012
19 1 21.8884 1.69893 1.23619
20 1 21.7986 1.84032 0.288065
21 1 21.0704 1.9111 -0.508002
22 1 20.5459 1.58986 -1.38579
23 1 19.6174 1.37648 -1.90873
24 1 19.7235 0.547901 -1.40335
25 1 18.9194 -0.083379 -1.16191
26 1 19.0529 -0.354941 -0.142523
27 1 18.9702 -1.27457 0.271244
28 1 19.2175 -1.42578 -0.724851
29 1 19.4641 -2.25072 -0.231824
30 1 19.9884 -1.45491 0.241049
31 1 20.3459 -0.64305 -0.104122
32 1 21.1754 -0.100205 -0.298321
33 1 21.7173 0.511383 -1.11154
34 1 22.6622 0.424609 -1.43551
35 1 22.3354 -0.0228119 -2.30027
36 1 21.981 0.635717 -3.03125
37 1 22.0472 1.70096 -2.77663
38 1 21.3918 2.43823 -2.53922
39 1 22.366 2.64638 -2.23506
40 1 21.7817 1.96945 -1.61195
41 1 22.5338 1.37933 -1.46616
42 1 22.5168 1.06837 -0.599675
43 1 22.097 0.206116 -0.169775
44 1 21.8214 -0.276387 0.526255
45 1 22.4104 -0.662649 0.0473933
46 1 22.33 -0.616864 -0.902297
47 1 21.3002 -0.607459 -1.34174
48 1 21.2309 -1.37876 -0.609629
49 1 21.0126 -2.42405 -0.342326
50 1 20.6743 -2.50383 0.612569
ITEM: TIMESTEP
15000
ITEM: NUMBER OF ATOMS
50
ITEM: BOX BOUNDS pp pp pp
-5.0000000000000000e+01 5.0000000000000000e+01
-5.0000000000000000e+01 5.0000000000000000e+01
-5.0000000000000000e+01 5.0000000000000000e+01
ITEM: ATOMS id type x y z
1 1 22.5146 0.410446 1.93262
2 1 22.4851 0.814055 2.85631
3 1 22.0327 1.31509 2.15826
4 1 21.4024 1.19159 2.87057
5 1 21.3972 0.245213 2.49711
6 1 20.4636 0.108481 2.12676
7 1 20.0804 0.0222105 1.18042
8 1 20.4859 0.27376 0.127736
9 1 19.7895 0.722416 0.492701
10 1 19.0986 0.527563 1.17698
11 1 19.5903 1.38339 1.26928
12 1 19.3506 2.36609 1.54273
13 1 20.3016 2.00683 1.83591
14 1 20.5132 1.97738 2.78732
15 1 21.3697 2.19199 2.28425
16 1 22.1231 2.27808 1.7123
17 1 21.4053 2.63621 1.04654
18 1 21.0673 1.70252 1.21241
19 1 22.0617 1.77706 0.715529
20 1 21.8638 0.820601 1.15363
21 1 22.4561 0.857608 0.208892
22 1 21.8086 0.55326 -0.575336
23 1 20.89 0.274177 -0.900702
24 1 21.2846 0.641032 -1.78886
25 1 21.0529 1.45585 -1.24994
26 1 21.8939 1.62513 -1.39915
27 1 22.0991 1.27371 -2.34126
28 1 22.7416 0.814955 -1.7542
29 1 22.8788 0.00279206 -2.14037
30 1 23.2526 -0.886322 -1.8146
31 1 22.1944 -0.730092 -1.88229
32 1 22.5203 -1.73239 -2.32231
33 1 23.0465 -1.05185 -2.89955
34 1 24.0676 -1.07659 -3.05726
35 1 24.2078 0.0555021 -2.86542
36 1 23.9875 -0.0978591 -1.83797
37 1 24.4276 -0.249186 -0.848082
38 1 24.1854 -0.295154 0.231364
39 1 23.7821 -0.000451877 1.21517
40 1 23.2301 -0.753127 1.08156
41 1 22.3952 -0.1336 0.949851
42 1 22.1735 -1.01348 0.510623
43 1 23.0218 -1.17428 -0.0172205
44 1 22.907 -1.50164 -0.981762
45 1 22.4075 -2.18368 -0.356367
46 1 22.8085 -3.03494 -0.64864
47 1 23.2067 -3.98666 -0.507658
48 1 22.8484 -4.61731 -1.28407
49 1 22.3168 -3.7743 -1.57457
50 1 23.0104 -4.0321 -2.1292
ITEM: TIMESTEP
16000
ITEM: NUMBER OF ATOMS
50
ITEM: BOX BOUNDS pp pp pp
-5.0000000000000000e+01 5.0000000000000000e+01
-5.0000000000000000e+01 5.0000000000000000e+01
-5.0000000000000000e+01 5.0000000000000000e+01
ITEM: ATOMS id type x y z
1 1 20.0788 -0.314294 0.855509
2 1 19.0402 -0.56259 0.797927
3 1 19.341 -0.495305 -0.119088
4 1 20.1451 0.136949 -0.0725177
5 1 19.3098 0.664548 -0.287271
6 1 18.4682 1.17115 -0.195451
7 1 18.6423 1.77458 -1.12195
8 1 18.768 2.64793 -0.691474
9 1 19.4291 3.29198 -0.867972
10 1 18.7734 3.90589 -0.882584
11 1 19.233 4.28954 -0.0944288
12 1 18.8028 3.4995 0.167661
13 1 19.6281 3.20865 0.750088
14 1 20.0833 2.78367 -0.0852795
15 1 19.5809 1.89901 -0.438732
16 1 19.6655 1.67237 -1.52035
17 1 20.2792 1.09093 -0.640126
18 1 20.9225 0.812987 0.0540421
19 1 21.664 1.28417 -0.334622
20 1 22.646 1.68035 -0.403451
21 1 23.124 0.729173 -0.600412
22 1 22.9172 0.556275 0.32989
23 1 22.8603 0.537987 1.3618
24 1 22.3953 1.43956 1.52862
25 1 21.6386 0.777491 1.77921
26 1 21.0679 0.313663 1.26312
27 1 22.0213 -0.191415 1.07438
28 1 22.708 -0.690229 0.577442
29 1 22.6042 -1.30601 1.3699
30 1 23.0611 -0.798519 2.2725
31 1 23.76 -0.929785 2.94568
32 1 23.8233 -1.29994 1.92913
33 1 24.4541 -1.04545 1.20145
34 1 24.0448 -0.150088 0.739169
35 1 23.5159 -0.177342 -0.102982
36 1 23.9382 -0.997703 0.122411
37 1 23.4722 -1.3484 0.785528
38 1 23.2482 -1.63009 -0.110672
39 1 23.8062 -2.02831 -0.908667
40 1 24.0104 -1.96986 -1.89693
41 1 24.8031 -1.78822 -1.39014
42 1 25.0386 -1.13287 -2.03029
43 1 24.8137 -2.01658 -2.46049
44 1 24.7659 -3.0456 -2.38468
45 1 24.4364 -3.29879 -1.4817
46 1 25.3664 -2.9518 -1.29718
47 1 24.7101 -2.50095 -0.761718
48 1 24.3468 -2.12713 0.0609468
49 1 23.9936 -2.66425 0.857902
50 1 23.2533 -2.70681 0.356855
ITEM: TIMESTEP
17000
ITEM: NUMBER OF ATOMS
50
ITEM: BOX BOUNDS pp pp pp
-5.0000000000000000e+01 5.0000000000000000e+01
-5.0000000000000000e+01 5.0000000000000000e+01
-5.0000000000000000e+01 5.0000000000000000e+01
ITEM: ATOMS id type x y z
1 1 19.9959 0.8052 -2.50136
2 1 19.8669 1.28083 -1.65684
3 1 20.6337 0.702583 -1.59806
4 1 20.9044 0.0257883 -1.00311
5 1 21.5426 0.707262 -1.08226
6 1 21.5934 0.454673 -2.08874
7 1 21.3781 1.48151 -2.57208
8 1 21.7699 1.65438 -1.71951
9 1 22.432 0.925731 -1.67681
10 1 22.6488 1.86487 -2.1071