ITEM: TIMESTEP
0
ITEM: NUMBER OF ATOMS
50
ITEM: BOX BOUNDS pp pp pp
-5.0000000000000000e+01 5.0000000000000000e+01
-5.0000000000000000e+01 5.0000000000000000e+01
-5.0000000000000000e+01 5.0000000000000000e+01
ITEM: ATOMS id type x y z
1 1 -2.41559 0 0
2 1 -1.41609 0 0
3 1 -0.417097 0 0
4 1 0.581853 0 0
5 1 1.58076 0 0
6 1 2.57962 0 0
7 1 3.57843 0 0
8 1 4.5772 0 0
9 1 5.57592 0 0
10 1 6.5746 0 0
11 1 7.57323 0 0
12 1 8.57181 0 0
13 1 9.57035 0 0
14 1 10.5688 0 0
15 1 11.5673 0 0
16 1 12.5657 0 0
17 1 13.5641 0 0
18 1 14.5624 0 0
19 1 15.5606 0 0
20 1 16.5589 0 0
21 1 17.557 0 0
22 1 18.5552 0 0
23 1 19.5532 0 0
24 1 20.5518 0 0
25 1 21.5504 0 0
26 1 22.5496 0 0
27 1 23.5482 0 0
28 1 24.5468 0 0
29 1 25.5448 0 0
30 1 26.543 0 0
31 1 27.5411 0 0
32 1 28.5394 0 0
33 1 29.5376 0 0
34 1 30.5359 0 0
35 1 31.5343 0 0
36 1 32.5327 0 0
37 1 33.5312 0 0
38 1 34.5296 0 0
39 1 35.5282 0 0
40 1 36.5268 0 0
41 1 37.5254 0 0
42 1 38.5241 0 0
43 1 39.5228 0 0
44 1 40.5216 0 0
45 1 41.5204 0 0
46 1 42.5192 0 0
47 1 43.5181 0 0
48 1 44.5171 0 0
49 1 45.5161 0 0
50 1 46.5156 0 0
ITEM: TIMESTEP
1000
ITEM: NUMBER OF ATOMS
50
ITEM: BOX BOUNDS pp pp pp
-5.0000000000000000e+01 5.0000000000000000e+01
-5.0000000000000000e+01 5.0000000000000000e+01
-5.0000000000000000e+01 5.0000000000000000e+01
ITEM: ATOMS id type x y z
1 1 7.56917 0.663355 0.508355
2 1 8.08432 0.753583 1.3048
3 1 8.50571 1.12673 0.66261
4 1 7.83607 1.74106 0.288891
5 1 7.96163 1.33257 -0.535728
6 1 8.68235 0.91449 -0.945401
7 1 8.67988 0.153364 -0.308227
8 1 9.31751 -0.104722 0.513239
9 1 9.45911 0.86725 0.146349
10 1 10.4128 0.802842 0.473492
11 1 11.0995 0.664423 -0.255042
12 1 11.9698 0.153686 -0.564956
13 1 12.9749 0.114597 -0.651684
14 1 13.0396 -0.708033 -1.22062
15 1 13.9479 -0.63439 -0.651435
16 1 14.9774 -0.439904 -0.676433
17 1 15.8931 -0.53253 -0.935535
18 1 16.6426 -1.01213 -0.482101
19 1 17.6123 -0.873954 -0.506736
20 1 18.1739 -0.110093 -0.317168
21 1 19.1115 -0.246013 -0.344839
22 1 19.0295 -0.57656 0.617121
23 1 19.5836 -1.16777 0.0625362
24 1 20.4371 -1.29346 0.561308
25 1 21.373 -1.52853 0.733232
26 1 21.7036 -1.52674 -0.170612
27 1 22.7315 -1.66437 -0.179329
28 1 23.5562 -1.33609 -0.719864
29 1 24.3692 -1.78653 -1.07737
30 1 25.0558 -1.17098 -1.42014
31 1 26.0566 -1.18101 -1.17512
32 1 27.0281 -0.944476 -1.35034
33 1 27.8538 -0.565996 -1.37617
34 1 28.6917 -0.124932 -1.2098
35 1 29.5109 0.0742238 -0.682091
36 1 30.1456 0.861013 -0.490316
37 1 30.6957 0.659057 0.327411
38 1 31.0677 0.213361 -0.506149
39 1 31.4426 1.01356 -0.769044
40 1 32.1376 0.452567 -0.638019
41 1 32.42 0.87735 0.238469
42 1 33.3902 0.802224 0.0206937
43 1 34.3396 1.11428 -0.00841508
44 1 35.2277 1.01318 0.358155
45 1 36.1544 0.778588 0.548903
46 1 36.8575 0.967232 1.23497
47 1 37.3865 0.572871 1.86286
48 1 37.8248 0.271637 2.77106
49 1 37.064 0.673557 3.19912
50 1 37.4147 -0.103447 3.73513
ITEM: TIMESTEP
2000
ITEM: NUMBER OF ATOMS
50
ITEM: BOX BOUNDS pp pp pp
-5.0000000000000000e+01 5.0000000000000000e+01
-5.0000000000000000e+01 5.0000000000000000e+01
-5.0000000000000000e+01 5.0000000000000000e+01
ITEM: ATOMS id type x y z
1 1 19.2487 0.205218 -1.10505
2 1 19.1032 1.01403 -0.443903
3 1 19.9866 1.55822 -0.431032
4 1 19.8787 1.48836 0.638249
5 1 19.1779 2.0274 0.173372
6 1 18.273 1.73789 -0.344553
7 1 18.0746 1.58254 0.544895
8 1 17.3903 0.97506 0.27847
9 1 17.8967 -0.0226731 0.507287
10 1 17.7224 -0.860537 0.0219485
11 1 17.0867 -0.713157 -0.722244
12 1 17.1498 -0.0439944 -1.47174
13 1 18.1452 0.0402558 -1.18438
14 1 18.47 -0.837971 -0.932063
15 1 19.3257 -1.10923 -0.581232
16 1 18.9353 -1.47436 0.206683
17 1 18.9761 -0.365276 -0.0122009
18 1 19.6528 -0.247099 0.596673
19 1 19.9583 0.253913 -0.173661
20 1 19.9923 -0.430647 -0.984016
21 1 20.1882 -0.710029 -0.117016
22 1 20.8028 -1.42216 -0.523914
23 1 21.3378 -0.610844 -0.583943
24 1 21.7973 -0.174874 -1.37516
25 1 21.6513 -1.22849 -1.62544
26 1 22.1546 -1.28479 -0.729226
27 1 21.6401 -2.11757 -0.910501
28 1 22.5774 -1.98188 -1.36303
29 1 23.0041 -1.07091 -1.5514
30 1 23.5967 -1.84658 -1.59107
31 1 24.1947 -1.27268 -2.031
32 1 24.125 -0.421103 -1.33177
33 1 23.3908 -0.637132 -0.613959
34 1 24.4408 -0.595636 -0.291474
35 1 24.2312 0.359352 -0.579841
36 1 24.9801 0.472159 -1.33641
37 1 25.528 0.24004 -0.505837
38 1 26.2285 -0.408968 -0.508623
39 1 26.504 0.641633 -0.416695
40 1 26.3408 0.180521 0.441859
41 1 25.4136 0.516052 0.556859
42 1 25.1773 -0.302513 1.06097
43 1 26.064 -0.254932 1.47997
44 1 25.335 0.192692 1.92635
45 1 25.8601 1.00594 2.29519
46 1 25.5293 1.64416 2.97091
47 1 26.015 1.05136 3.51649
48 1 27.065 1.2368 3.25261
49 1 26.4994 2.05091 3.42898
50 1 26.3828 1.97153 2.47464
ITEM: TIMESTEP
3000
ITEM: NUMBER OF ATOMS
50
ITEM: BOX BOUNDS pp pp pp
-5.0000000000000000e+01 5.0000000000000000e+01
-5.0000000000000000e+01 5.0000000000000000e+01
-5.0000000000000000e+01 5.0000000000000000e+01
ITEM: ATOMS id type x y z
1 1 23.6209 2.83898 -2.11102
2 1 24.4041 2.63598 -1.42908
3 1 24.392 1.49717 -1.65691
4 1 23.9275 1.02001 -0.90249
5 1 24.4949 1.18381 -0.0176025
6 1 24.0305 0.609881 0.648124
7 1 24.8334 0.0856297 0.878881
8 1 24.4029 0.50009 1.69761
9 1 23.741 1.15328 1.74925
10 1 23.3957 1.5772 0.8968
11 1 23.1128 1.63849 -0.0778001
12 1 22.4463 1.33832 -0.856751
13 1 21.8024 0.55044 -0.593844
14 1 21.4625 0.0740189 0.348522
15 1 20.8775 -0.158612 -0.350535
16 1 20.1038 -0.698561 -0.648642
17 1 20.3997 -1.03679 0.126706
18 1 20.8536 -1.64375 0.69906
19 1 21.2936 -1.11087 1.47663
20 1 22.0963 -0.760961 1.5561
21 1 22.3094 -0.265402 0.754115
22 1 22.5856 -1.20715 0.498729
23 1 23.3034 -1.66766 0.0972776
24 1 23.7694 -1.64096 -0.815
25 1 22.8522 -1.82042 -1.12594
26 1 22.7395 -1.64684 -2.20496
27 1 23.3396 -2.45041 -2.04126
28 1 24.3233 -2.73048 -2.05899
29 1 25.311 -2.7024 -1.97572
30 1 25.014 -2.40677 -2.92457
31 1 24.3587 -1.64729 -2.38072
32 1 23.5435 -1.06674 -2.02247
33 1 23.3453 -0.190829 -1.96297
34 1 23.7698 -0.175111 -1.10846
35 1 23.0323 -0.687365 -0.552986
36 1 22.9469 0.286602 -0.754662
37 1 22.6767 0.574118 0.174821
38 1 22.0245 1.21373 0.706487
39 1 21.6357 1.39078 1.53498
40 1 20.6704 1.39742 1.31544
41 1 20.1329 0.910133 1.85381
42 1 19.6528 0.661951 2.6437
43 1 19.4338 1.56936 3.07665
44 1 18.6395 1.17675 2.68199
45 1 18.1246 0.438475 2.14161
46 1 18.5114 -0.22751 1.52715
47 1 17.7393 -0.138251 0.848923
48 1 16.8969 -0.386762 0.273324
49 1 17.0922 0.625155 0.0578711
50 1 17.0344 1.52011 0.308827
ITEM: TIMESTEP
4000
ITEM: NUMBER OF ATOMS
50
ITEM: BOX BOUNDS pp pp pp
-5.0000000000000000e+01 5.0000000000000000e+01
-5.0000000000000000e+01 5.0000000000000000e+01
-5.0000000000000000e+01 5.0000000000000000e+01
ITEM: ATOMS id type x y z
1 1 25.4105 -1.2487 -0.807061
2 1 25.8952 -0.491775 -0.581364
3 1 26.1344 0.132027 0.185708
4 1 26.4882 0.964449 -0.212239
5 1 25.8627 1.08051 0.57848
6 1 25.9382 0.985508 1.62912
7 1 26.3578 0.355241 1.1939
8 1 25.5191 -0.00222992 0.955136
9 1 25.0862 -0.457732 1.78804
10 1 24.303 -0.239281 1.36075
11 1 24.5424 0.712391 1.74744
12 1 23.5761 0.506118 1.70195
13 1 23.4526 1.119 0.887111
14 1 23.2301 1.6299 1.61371
15 1 22.6131 1.55581 0.76694
16 1 21.8973 0.879364 0.370822
17 1 21.6947 -0.0753331 0.85464
18 1 20.7806 -0.245922 0.779279
19 1 20.7515 -1.02718 0.283634
20 1 21.679 -1.11045 -0.0874367
21 1 22.1913 -1.86512 0.132459
22 1 22.7972 -1.77416 0.95004
23 1 23.3003 -1.88863 1.72402
24 1 23.2218 -0.836278 2.11599
25 1 23.3272 -0.960906 1.0494
26 1 23.1281 -0.937296 -0.0461123
27 1 23.069 -1.34976 -0.965709
28 1 22.8129 -0.498956 -1.01853
29 1 23.6821 -0.575915 -1.54395
30 1 23.4574 0.446255 -1.22579
31 1 24.0787 -0.102896 -0.698479
32 1 25.0027 0.480362 -0.342184
33 1 24.1854 0.47913 0.410672
34 1 23.3625 0.0582262 0.651086
35 1 22.6795 0.401879 1.10973
36 1 21.9159 0.748195 1.68761
37 1 21.1088 1.11672 1.13686
38 1 20.9255 1.04116 0.0220491
39 1 20.8493 1.14661 -0.962032
40 1 19.9141 1.17729 -1.19513
41 1 18.8707 1.118 -1.09684
42 1 18.5942 0.432424 -1.78882
43 1 17.5329 0.221163 -1.99623
44 1 17.124 -0.24914 -2.84073
45 1 16.5615 0.508639 -2.68347
46 1 15.6952 0.19184 -2.11405
47 1 14.8798 -0.350747 -2.55428
48 1 15.2822 -0.484951 -1.63614
49 1 15.4746 -1.08375 -0.829422
50 1 16.2626 -1.63111 -0.460565
ITEM: TIMESTEP
5000
ITEM: NUMBER OF ATOMS
50
ITEM: BOX BOUNDS pp pp pp
-5.0000000000000000e+01 5.0000000000000000e+01
-5.0000000000000000e+01 5.0000000000000000e+01
-5.0000000000000000e+01 5.0000000000000000e+01
ITEM: ATOMS id type x y z
1 1 23.6998 -1.16985 2.49628
2 1 23.4215 -0.823794 3.28707
3 1 22.9729 0.0572078 3.17336
4 1 23.8348 0.56172 3.10361
5 1 24.1206 -0.0772433 2.1911
6 1 25.0091 -0.125196 1.77139
7 1 25.1737 0.652063 2.27929
8 1 24.5876 0.982139 1.60716
9 1 23.8969 1.74028 1.49881
10 1 23.2768 1.97669 0.719272
11 1 22.731 1.65924 1.37174
12 1 22.0767 1.28424 0.732304
13 1 21.9173 0.31768 0.363422
14 1 21.1641 0.846277 0.524159
15 1 21.4815 1.58107 -0.0194702
16 1 22.0773 1.9315 -0.66119
17 1 21.9406 2.22474 -1.57514
18 1 21.6732 1.27827 -2.1248
19 1 21.3407 0.794292 -1.1988
20 1 20.7606 -0.0373316 -1.40553
21 1 21.075 -0.0320465 -0.337705
22 1 21.8961 0.00351751 -0.877084
23 1 22.4015 -0.873171 -0.790826
24 1 22.5926 -1.78986 -0.491568
25 1 22.5462 -1.72634 0.518396
26 1 22.6131 -0.745733 0.475816
27 1 23.3206 -1.04033 -0.0558198
28 1 24.0934 -0.575623 -0.451055
29 1 24.7552 -0.284712 0.204257
30 1 24.5455 -0.684708 0.973947
31 1 23.6243 -0.631227 1.22892
32 1 23.1903 0.353094 1.35775
33 1 22.2478 0.1228 1.58371
34 1 21.4287 0.0684869 1.19194
35 1 21.71 -1.01499 1.23996
36 1 21.0623 -0.953443 0.387161
37 1 20.738 -1.55323 -0.292233
38 1 19.9262 -1.94577 -0.00906889
39 1 19.8445 -1.0392 0.48969
40 1 20.2175 -0.33312 0.117082
41 1 19.8811 -0.897044 -0.620733
42 1 19.4663 -0.647638 -1.53224
43 1 19.3571 -0.195046 -2.47068
44 1 20.1061 0.212326 -2.24716
45 1 20.9821 -0.242239 -2.38994
46 1 20.1206 -0.829345 -2.63338
47 1 19.6056 -0.682655 -3.35389
48 1 20.4211 -0.122564 -3.45179
49 1 20.4583 0.780103 -2.98998
50 1 21.1163 1.64572 -2.90748
ITEM: TIMESTEP
6000
ITEM: NUMBER OF ATOMS
50
ITEM: BOX BOUNDS pp pp pp
-5.0000000000000000e+01 5.0000000000000000e+01
-5.0000000000000000e+01 5.0000000000000000e+01
-5.0000000000000000e+01 5.0000000000000000e+01
ITEM: ATOMS id type x y z
1 1 20.4641 1.88111 3.40496
2 1 21.216 2.23027 3.82617
3 1 21.4099 1.47653 4.50437
4 1 21.8624 1.12874 3.77619
5 1 22.5765 0.833815 3.28532
6 1 22.4713 1.16464 2.36643
7 1 22.6803 1.90818 1.79646
8 1 21.8544 2.21669 2.09267
9 1 21.5089 1.43944 2.74011
10 1 21.5652 1.27783 1.71269
11 1 20.886 2.19424 1.6115
12 1 21.2602 1.98387 0.721062
13 1 22.0671 2.42768 0.815467
14 1 22.1563 1.3727 0.739286
15 1 21.9828 0.972828 -0.0646551
16 1 22.853 1.31992 -0.313683
17 1 22.1935 2.1016 -0.128357
18 1 21.6447 1.71171 -0.895443
19 1 22.4873 1.78708 -1.58548
20 1 22.528 1.11209 -2.31772
21 1 23.0631 0.220502 -2.15164
22 1 23.2854 0.6861 -1.41748
23 1 23.7976 -0.10447 -1.10485
24 1 23.2722 -0.702282 -0.457617
25 1 22.4444 -1.00542 0.113859
26 1 22.2835 -1.73358 0.731598
27 1 21.842 -2.54491 0.310699
28 1 21.4635 -2.3839 1.32377
29 1 20.8942 -1.7394 1.44097
30 1 19.903 -1.7674 1.21919
31 1 20.2843 -1.09882 2.05468
32 1 20.1913 -0.41644 1.48734
33 1 20.917 -0.735956 0.79533
34 1 20.1272 -1.17318 0.383589
35 1 20.812 -1.72063 -0.236907
36 1 20.9583 -2.781 -0.251777
37 1 21.4801 -2.30179 -0.938196
38 1 20.9002 -1.90819 -1.70601
39 1 21.5925 -1.35737 -1.46051
40 1 22.4785 -1.37017 -0.983424
41 1 22.6265 -1.80383 -1.89896
42 1 22.3433 -1.99885 -2.86799
43 1 21.5023 -1.42728 -2.89328
44 1 21.874 -0.744526 -3.55539
45 1 22.7314 -0.35622 -3.66887
46 1 23.7555 -0.523714 -3.6424
47 1 23.423 -0.479634 -2.73144
48 1 24.3911 -0.0676426 -2.70233
49 1 24.8877 0.496151 -2.06132
50 1 25.3069 0.302906 -1.218
ITEM: TIMESTEP
7000
ITEM: NUMBER OF ATOMS
50
ITEM: BOX BOUNDS pp pp pp
-5.0000000000000000e+01 5.0000000000000000e+01
-5.0000000000000000e+01 5.0000000000000000e+01
-5.0000000000000000e+01 5.0000000000000000e+01
ITEM: ATOMS id type x y z
1 1 19.9346 2.51777 4.28132
2 1 18.9806 2.80465 4.73191
3 1 18.1086 3.21214 4.25677
4 1 18.8295 3.51854 3.57191
5 1 19.6083 3.47494 2.95639
6 1 19.5769 2.47788 2.87732
7 1 20.3776 2.55283 2.38388
8 1 20.6206 1.98657 3.27373
9 1 21.0929 2.81713 3.74141
10 1 21.514 1.88646 3.89574
11 1 21.6724 1.30991 2.98989
12 1 21.3891 2.13416 2.57122
13 1 21.677 1.54395 1.86849
14 1 22.1396 1.75209 1.0462
15 1 21.2105 1.56752 0.696806
16 1 21.9697 0.814293 0.602917
17 1 21.8103 -0.111508 0.450736
18 1 22.1393 0.191916 -0.394545
19 1 22.8764 0.754809 -0.351839
20 1 23.0033 0.158372 -1.34951
21 1 23.6529 -0.245132 -0.913383
22 1 23.4142 -1.11863 -0.552438
23 1 22.9882 -1.71472 -1.32569
24 1 21.9815 -1.57924 -1.71433
25 1 20.9267 -1.90575 -1.12499
26 1 21.0481 -2.09979 -0.13432
27 1 21.8023 -2.28806 -0.879326
28 1 21.8438 -1.51808 -0.40898
29 1 21.495 -0.724616 -0.887318
30 1 21.7048 -0.351263 -1.74771
31 1 21.245 -1.2199 -2.22121
32 1 21.1362 -2.1615 -2.16779
33 1 20.2039 -1.95907 -2.47192
34 1 20.0198 -1.0557 -2.92747
35 1 19.9913 -0.232776 -3.48509
36 1 20.6626 -0.559323 -3.97428
37 1 21.252 -0.94606 -3.29872
38 1 22.1017 -0.468405 -3.16291
39 1 22.6131 -0.419895 -2.1799
40 1 23.1717 -1.04066 -2.42924
41 1 23.9763 -1.08751 -1.75464
42 1 24.6193 -0.497132 -1.67474
43 1 25.0144 -1.43218 -1.53948
44 1 25.9018 -1.74748 -1.13426
45 1 25.7238 -2.56874 -0.524503
46 1 25.0199 -1.95422 -0.245613
47 1 25.4955 -1.00248 -0.499811
48 1 24.8097 -0.490453 -0.100605
49 1 25.4481 -1.22921 0.469251
50 1 24.7052 -1.74644 0.910678
ITEM: TIMESTEP
8000
ITEM: NUMBER OF ATOMS
50
ITEM: BOX BOUNDS pp pp pp
-5.0000000000000000e+01 5.0000000000000000e+01
-5.0000000000000000e+01 5.0000000000000000e+01
-5.0000000000000000e+01 5.0000000000000000e+01
ITEM: ATOMS id type x y z
1 1 18.4109 2.85007 -0.00888761
2 1 18.676 2.79479 0.9994
3 1 18.1378 3.68244 0.776952
4 1 18.4899 3.39321 1.71227
5 1 19.3922 3.1756 1.99488
6 1 19.4029 2.71795 2.89288
7 1 19.7417 3.28359 3.55576
8 1 20.4388 3.92805 3.80303
9 1 20.848 3.12916 4.42505
10 1 20.9388 2.8841 3.27778
11 1 21.2699 2.74357 2.369
12 1 21.2405 1.92851 1.84446
13 1 21.088 1.05091 1.61341
14 1 21.0529 0.356693 2.36964
15 1 20.7869 -0.392735 2.76869
16 1 20.945 -0.594605 1.82378
17 1 21.6188 -0.728784 1.02916
18 1 22.2127 -0.376682 1.75408
19 1 22.5462 -0.402144 0.818793
20 1 22.0849 -0.651991 -0.0247146
21 1 22.4341 -0.229751 -0.889929
22 1 21.9351 -1.25465 -0.838771
23 1 21.4474 -1.82766 -1.44978
24 1 21.1485 -1.74398 -0.488676
25 1 20.2896 -1.82577 -1.2213
26 1 20.3964 -1.7839 -2.2017
27 1 20.6389 -1.47908 -3.0803
28 1 20.6659 -2.06244 -3.92715
29 1 21.2677 -2.42971 -4.7446
30 1 22.2655 -2.03047 -4.83953
31 1 22.5595 -1.12844 -4.57533
32 1 22.8958 -0.481302 -4.05167
33 1 23.3407 -0.567064 -3.22938
34 1 24.3226 -0.745633 -3.43868
35 1 24.572 0.0619057 -2.88453
36 1 25.3829 -0.64122 -2.57315
37 1 24.3827 -0.858715 -2.23496
38 1 24.1283 -0.230973 -1.45783
39 1 24.2397 0.838948 -1.56039
40 1 23.8689 1.00134 -0.703477
41 1 23.5497 0.108339 -0.55607
42 1 23.5634 -0.250985 0.374933
43 1 23.7783 0.448123 0.992642
44 1 23.8887 -0.459565 1.50563
45 1 23.9534 -1.30637 1.00324
46 1 23.4605 -2.22941 1.21811
47 1 24.0177 -2.78261 0.833001
48 1 24.8769 -3.21944 1.13475
49 1 25.023 -2.45893 1.78319
50 1 24.8833 -3.20231 2.30632
ITEM: TIMESTEP
9000
ITEM: NUMBER OF ATOMS
50
ITEM: BOX BOUNDS pp pp pp
-5.0000000000000000e+01 5.0000000000000000e+01
-5.0000000000000000e+01 5.0000000000000000e+01
-5.0000000000000000e+01 5.0000000000000000e+01
ITEM: ATOMS id type x y z
1 1 19.788 3.54178 -0.902705
2 1 20.1653 2.84781 -0.472883
3 1 19.2837 2.64922 -0.612987
4 1 19.2971 2.88131 0.308432
5 1 19.9835 2.10322 0.369274
6 1 20.8623 2.20061 0.465355
7 1 20.6747 2.50077 1.39464
8 1 20.3832 1.50727 1.41165
9 1 19.7179 2.02317 1.95481
10 1 20.0299 2.28927 2.83907
11 1 19.071 2.48748 2.87662
12 1 18.9906 1.60572 2.54356
13 1 18.8138 1.4967 1.67078
14 1 18.9952 0.705144 2.24929
15 1 19.6454 0.770501 1.60835
16 1 19.8891 0.342956 0.731121
17 1 20.5901 -0.36607 0.262684
18 1 20.0053 -0.991333 0.686151
19 1 20.686 -1.62679 0.476463
20 1 21.6996 -1.53196 0.221413
21 1 21.7771 -1.35186 -0.89784
22 1 22.2497 -0.488519 -0.876856
23 1 22.5074 -0.612986 -1.841
24 1 23.3427 -0.865823 -1.40349
25 1 23.6731 -0.20257 -2.15399
26 1 23.6531 0.426142 -2.92426
27 1 24.3555 -0.12227 -3.37741
28 1 25.0552 0.411852 -2.84902
29 1 25.5322 -0.129285 -3.43767
30 1 25.182 -1.16379 -3.37464
31 1 24.9034 -1.89151 -2.57378
32 1 24.2944 -1.2935 -2.61217
33 1 24.8639 -0.608315 -2.41428
34 1 24.9749 -1.16725 -1.58702
35 1 25.5307 -1.09777 -0.7221
36 1 24.5694 -0.803773 -0.717233
37 1 24.0405 -0.0674084 -0.201056
38 1 23.4928 -1.0186 0.0597928
39 1 23.3197 -0.25326 0.739696
40 1 22.3985 0.151583 0.523175
41 1 21.4564 0.505401 0.513427
42 1 20.9221 0.707818 1.29171
43 1 21.877 0.282663 1.60623
44 1 21.8253 -0.707984 1.08172
45 1 22.6971 -1.26442 1.13142
46 1 22.6075 -2.11805 0.604727
47 1 22.3285 -2.61026 1.48216
48 1 23.4214 -2.44839 1.43926
49 1 23.2991 -3.42428 1.71762
50 1 23.7775 -4.21036 1.69181
ITEM: TIMESTEP
10000
ITEM: NUMBER OF ATOMS
50
ITEM: BOX BOUNDS pp pp pp
-5.0000000000000000e+01 5.0000000000000000e+01
-5.0000000000000000e+01 5.0000000000000000e+01
-5.0000000000000000e+01 5.0000000000000000e+01
ITEM: ATOMS id type x y z
1 1 20.5256 4.19597 0.359345
2 1 19.9732 4.43964 -0.334175
3 1 19.8257 3.50139 0.00709399
4 1 19.8435 2.71169 -0.876833
5 1 20.0798 2.15621 -1.78111
6 1 19.602 1.38188 -2.03767
7 1 19.0016 1.33697 -1.43697
8 1 19.2581 1.05403 -0.680131
9 1 18.686 0.457707 -0.324326
10 1 18.6829 -0.319122 -0.933382
11 1 19.7279 -0.198082 -0.988722
12 1 20.2083 0.774824 -1.11718
13 1 21.0701 0.52865 -0.67409
14 1 20.3163 0.803884 -0.0189132
15 1 19.9845 0.0868141 0.379009
16 1 20.5626 -0.324527 -0.405434
17 1 20.4838 -1.33299 -0.723868
18 1 21.3773 -1.66433 -0.6084
19 1 21.729 -1.47349 -1.51716
20 1 22.1175 -0.485785 -2.03747
21 1 22.8587 -0.664559 -1.32849
22 1 23.6857 -0.0578909 -1.6245
23 1 24.0981 0.751648 -1.99376
24 1 24.7388 0.0334096 -1.68767
25 1 24.4625 -0.535627 -0.844531
26 1 24.0341 0.128088 -0.173793
27 1 24.2622 0.878011 0.203931
28 1 24.8363 0.78287 1.01311
29 1 25.7213 0.280745 1.02088
30 1 26.5886 -0.0590869 1.37014
31 1 26.0769 -0.271027 2.10346
32 1 25.1106 -0.577594 2.2683
33 1 24.8595 -0.829844 1.18566
34 1 24.6971 -0.90602 0.256703
35 1 25.0581 -1.88647 0.197639
36 1 24.4304 -2.07294 -0.435346
37 1 24.0439 -1.65863 0.31049
38 1 23.8744 -1.08122 1.13902
39 1 22.7878 -0.80947 1.1484
40 1 23.2064 0.0697006 1.32757
41 1 22.9515 -0.216307 2.26974
42 1 21.9584 -0.112337 2.05583
43 1 22.0097 -0.203768 1.04294
44 1 21.3809 -0.33424 0.194272
45 1 21.7254 -1.23085 0.520851
46 1 21.1565 -1.87804 0.4064
47 1 20.6947 -1.18476 0.683502
48 1 19.7594 -1.48624 0.467315
49 1 18.963 -1.19409 0.803567
50 1 19.4138 -1.3048 1.84873
ITEM: TIMESTEP
11000
ITEM: NUMBER OF ATOMS
50
ITEM: BOX BOUNDS pp pp pp
-5.0000000000000000e+01 5.0000000000000000e+01
-5.0000000000000000e+01 5.0000000000000000e+01
-5.0000000000000000e+01 5.0000000000000000e+01
ITEM: ATOMS id type x y z
1 1 20.7774 1.85072 -0.79493
2 1 20.533 1.07393 -0.109163
3 1 19.9062 0.585025 -0.890504
4 1 19.555 -0.209134 -1.38681
5 1 19.2837 0.542079 -2.01067
6 1 19.3518 1.39782 -2.37858
7 1 19.0688 1.84243 -3.29536
8 1 18.7297 0.866461 -3.39263
9 1 19.6228 0.399153 -3.23002
10 1 20.3945 0.824792 -2.99075
11 1 20.4313 1.93042 -3.01204
12 1 20.1494 2.48961 -2.31073
13 1 20.6333 1.67418 -1.88931
14 1 21.4426 1.04607 -1.72454
15 1 22.2883 1.60956 -1.45122
16 1 22.8861 0.819698 -1.73962
17 1 23.6767 0.965282 -1.16739
18 1 23.2379 1.82304 -0.550265
19 1 23.9805 1.54754 0.107267
20 1 23.7565 0.57087 -0.154304
21 1 24.7953 0.840043 0.0881896
22 1 24.7781 0.0149422 0.565227
23 1 25.472 0.518939 1.19178
24 1 25.5216 1.27677 1.91923
25 1 24.6842 1.09187 1.46201
26 1 24.5547 1.6156 2.47289
27 1 23.71 1.07418 1.90104
28 1 23.0675 0.995738 1.0912
29 1 23.8122 0.328436 0.994189
30 1 23.7551 -0.562944 0.570288
31 1 23.4297 -0.736003 1.48415
32 1 22.55 -0.779432 1.96927
33 1 21.5593 -1.12825 2.04207
34 1 21.1417 -2.12441 2.30823
35 1 21.9152 -2.51576 2.92526
36 1 22.4882 -2.21033 2.18402
37 1 23.4295 -1.74698 1.99988
38 1 24.1929 -2.29269 1.97803
39 1 23.5667 -2.90407 1.70948
40 1 22.895 -3.2658 2.26244
41 1 22.1413 -3.17708 1.67789
42 1 22.5429 -2.56559 1.05045
43 1 21.4867 -2.45336 1.05161
44 1 21.4846 -1.59934 0.344823
45 1 20.7311 -1.32605 1.09198
46 1 20.4756 -0.23472 0.777302
47 1 20.5924 -0.185535 -0.187376
48 1 21.2975 0.259783 -0.657473
49 1 20.5254 0.0905348 -1.52053
50 1 20.1982 0.0519633 -2.37599
ITEM: TIMESTEP
12000
ITEM: NUMBER OF ATOMS
50
ITEM: BOX BOUNDS pp pp pp
-5.0000000000000000e+01 5.0000000000000000e+01
-5.0000000000000000e+01 5.0000000000000000e+01
-5.0000000000000000e+01 5.0000000000000000e+01
ITEM: ATOMS id type x y z
1 1 18.7801 -1.36299 -2.48752
2 1 19.2259 -0.475805 -2.67005
3 1 19.9594 -0.845704 -3.08684
4 1 19.7887 0.0913334 -3.7768
5 1 20.2809 0.599089 -3.00761
6 1 20.8892 0.0439926 -3.36356
7 1 21.9068 0.28824 -3.5045
8 1 21.924 0.210619 -2.46357
9 1 22.7527 0.809057 -2.58748
10 1 22.7663 1.70545 -2.9564
11 1 23.4722 1.16357 -3.51938
12 1 24.0661 0.845067 -2.7175
13 1 24.0517 1.48094 -2.00042
14 1 23.4908 2.30835 -2.27813
15 1 23.6571 2.77327 -1.47236
16 1 24.1406 2.02117 -1.1321
17 1 24.3646 2.46708 -0.252214
18 1 23.5885 2.61412 0.331944
19 1 22.9541 2.39703 1.07189
20 1 23.166 1.61655 1.38288
21 1 24.2015 2.02233 1.4494
22 1 23.7339 2.49193 2.1451
23 1 23.1838 2.67974 2.91193
24 1 23.5384 1.91412 3.33314
25 1 22.6593 2.21826 3.56024
26 1 22.4878 2.23781 2.44948
27 1 21.7286 1.46198 2.26498
28 1 21.1659 0.711883 1.82036
29 1 20.5034 0.222481 2.35652
30 1 20.7994 -0.0325755 1.29579
31 1 21.2777 -0.336105 1.91872
32 1 21.3203 -1.43007 1.57191
33 1 22.0103 -2.09099 1.70169
34 1 22.3678 -1.27777 2.09397
35 1 21.8886 -1.8091 2.7701
36 1 20.939 -2.15354 3.0456
37 1 20.5634 -2.12508 2.15712
38 1 20.1115 -2.94453 2.56938
39 1 20.9498 -3.10637 1.91173
40 1 21.1595 -2.40306 1.15552
41 1 21.4596 -2.69587 0.277934
42 1 22.4358 -2.8413 -0.110464
43 1 22.2471 -2.70835 0.895599
44 1 22.0768 -1.85436 0.487522
45 1 21.4895 -1.42985 -0.128954
46 1 21.8182 -2.11629 -0.776833
47 1 22.4503 -1.67082 -1.4072
48 1 21.7528 -1.0209 -1.14604
49 1 22.7037 -0.731169 -1.06095
50 1 22.2509 0.0671243 -1.0236
ITEM: TIMESTEP
13000
ITEM: NUMBER OF ATOMS
50
ITEM: BOX BOUNDS pp pp pp
-5.0000000000000000e+01 5.0000000000000000e+01
-5.0000000000000000e+01 5.0000000000000000e+01
-5.0000000000000000e+01 5.0000000000000000e+01
ITEM: ATOMS id type x y z
1 1 23.6205 -0.243574 -5.56018
2 1 23.4036 -1.02078 -5.39759
3 1 23.0809 -1.97861 -5.47226
4 1 23.1176 -1.68398 -4.473
5 1 22.8137 -1.2015 -3.6189
6 1 22.8793 -0.644718 -2.79169
7 1 23.6862 -0.101018 -2.39642
8 1 23.8303 0.353681 -1.59032
9 1 24.1763 -0.45294 -1.17894
10 1 23.3095 -0.11061 -0.800589
11 1 23.697 -0.787116 -0.134497
12 1 23.9637 0.187499 -0.00964227
13 1 23.5622 0.902653 0.49434
14 1 23.7058 0.322256 1.30386
15 1 23.5224 -0.650915 1.0842
16 1 22.8068 -0.00803672 0.837259
17 1 22.7257 0.944767 1.34075
18 1 23.0692 1.82095 1.73539
19 1 22.0145 1.61823 1.32603
20 1 21.9027 0.63385 0.82822
21 1 21.722 0.705993 -0.185046
22 1 21.8901 1.57993 -0.461335
23 1 21.7777 2.14524 0.383637
24 1 21.1171 2.41958 1.13441
25 1 20.1718 2.25268 1.34083
26 1 20.3338 2.19652 2.35008
27 1 19.9876 1.31487 2.27543
28 1 20.7681 0.709344 2.36548
29 1 21.0603 1.24343 1.58811
30 1 20.5302 0.817726 0.992641
31 1 21.2617 1.41723 0.633267
32 1 20.6361 1.00782 0.00567785
33 1 20.3476 0.147768 0.315801
34 1 20.0121 -0.156761 -0.732755
35 1 19.477 -0.13837 -1.43784
36 1 19.7473 -1.13181 -1.21993
37 1 20.4679 -1.51753 -1.68649
38 1 21.1802 -1.32373 -1.05819
39 1 21.2824 -2.26123 -0.99362
40 1 20.7611 -2.28646 -0.0766243
41 1 21.4486 -1.99922 0.579712
42 1 21.4483 -1.48692 1.52526
43 1 20.7272 -0.805939 1.44619
44 1 20.9883 -0.0431997 1.29804
45 1 21.6476 -0.00552282 2.11202
46 1 22.5141 -0.317705 1.83709
47 1 22.9712 -0.839288 2.54232
48 1 23.926 -0.800602 3.14943
49 1 23.9853 -0.85947 2.14698
50 1 23.4233 0.115542 2.30338
ITEM: TIMESTEP
14000
ITEM: NUMBER OF ATOMS
50
ITEM: BOX BOUNDS pp pp pp
-5.0000000000000000e+01 5.0000000000000000e+01
-5.0000000000000000e+01 5.0000000000000000e+01
-5.0000000000000000e+01 5.0000000000000000e+01
ITEM: ATOMS id type x y z
1 1 25.1104 -0.053162 0.31877
2 1 24.4519 -0.514932 0.429656
3 1 24.892 -1.54459 0.299902
4 1 25.5227 -0.942427 0.797203
5 1 25.6674 -0.99596 -0.260957
6 1 25.4076 -1.2027 -1.20854
7 1 24.3094 -1.07971 -1.151
8 1 23.5579 -1.66445 -1.06995
9 1 22.8199 -1.1401 -0.623783
10 1 23.7524 -1.29942 -0.201439
11 1 23.1976 -2.21975 -0.0530916
12 1 22.8301 -1.59566 0.66009
13 1 22.7181 -0.692897 0.913849
14 1 23.2648 0.0318234 0.32852
15 1 22.4895 0.517947 0.904847
16 1 22.8819 1.38289 0.613341
17 1 21.8283 1.3243 0.608812
18 1 21.1186 0.669532 0.109447
19 1 21.5821 0.913211 -0.69132
20 1 21.5224 1.76306 -0.366653
21 1 21.4694 2.29191 -1.22937
22 1 20.8949 2.99872 -1.15368
23 1 20.4023 2.11275 -0.746827
24 1 20.2324 1.84078 0.209466
25 1 20.7459 1.32697 0.914846
26 1 21.3515 0.845527 1.32865
27 1 20.5482 0.751641 1.97787
28 1 19.8094 0.83222 1.2708
29 1 20.3045 0.0246914 1.07386
30 1 20.097 0.567191 0.328373
31 1 19.867 0.740061 -0.687828
32 1 20.202 0.192003 -1.44155
33 1 21.0964 -0.252288 -1.51182
34 1 21.7955 0.123145 -2.12127
35 1 21.5022 1.00673 -1.67679
36 1 22.2581 1.48743 -1.14917
37 1 22.8286 0.876227 -1.6571
38 1 22.3739 0.336948 -1.02148
39 1 22.8077 -0.350688 -1.82414
40 1 22.3019 -1.14505 -2.15735
41 1 21.9256 -1.17216 -1.23458
42 1 21.1628 -1.51685 -0.75875
43 1 21.5586 -0.807792 -0.0889629
44 1 21.6821 -1.38612 0.578214
45 1 22.0991 -1.0993 1.57081
46 1 21.2369 -0.562339 1.66391
47 1 20.5942 -1.07936 1.32463
48 1 20.0217 -0.916986 2.09395
49 1 19.8903 -0.247948 2.67297
50 1 20.5146 0.524921 3.09459
ITEM: TIMESTEP
15000
ITEM: NUMBER OF ATOMS
50
ITEM: BOX BOUNDS pp pp pp
-5.0000000000000000e+01 5.0000000000000000e+01
-5.0000000000000000e+01 5.0000000000000000e+01
-5.0000000000000000e+01 5.0000000000000000e+01
ITEM: ATOMS id type x y z
1 1 23.2849 0.0349208 5.22595
2 1 24.0145 -0.274348 4.61411
3 1 23.752 -0.968065 4.04506
4 1 22.8543 -1.33053 4.31311
5 1 22.2937 -2.14069 3.84615
6 1 21.9013 -1.94531 3.01645
7 1 22.2793 -0.996585 3.12227
8 1 22.421 -1.13784 2.16311
9 1 22.6109 -0.425159 1.55987
10 1 23.4275 -0.0905158 1.04695
11 1 23.2583 -0.912961 0.571783
12 1 23.2481 -1.41222 1.56491
13 1 22.2952 -1.48944 1.19304
14 1 22.1614 -1.14317 0.252365
15 1 22.3833 -0.119944 0.402808
16 1 22.4307 0.715101 0.735536
17 1 23.2006 0.854146 0.214333
18 1 22.4063 1.4217 -0.163249
19 1 22.2167 2.0042 -0.948533
20 1 21.3443 1.89982 -0.703975
21 1 21.0712 2.70778 -0.21396
22 1 21.3242 1.76367 0.21266
23 1 21.5576 2.53565 0.83726
24 1 20.6229 2.30094 0.750131
25 1 20.3297 1.71441 -0.157379
26 1 20.6139 1.11139 0.525545
27 1 21.1632 0.772188 -0.126913
28 1 20.6079 0.52081 -1.10176
29 1 20.5519 1.45881 -1.56973
30 1 19.9432 1.93906 -2.24688
31 1 20.071 0.895973 -2.24414
32 1 21.0446 0.591692 -2.17477
33 1 21.6013 -0.142117 -1.8433
34 1 22.4534 0.0360232 -2.27803
35 1 22.7942 -0.583655 -3.0635
36 1 23.0291 -1.06953 -2.29766
37 1 23.8207 -1.01901 -1.62944
38 1 24.571 -0.328217 -1.29761
39 1 24.6685 0.527752 -0.911219
40 1 24.3483 -0.0171963 -0.172933
41 1 23.5211 -0.56554 -0.444292
42 1 23.5207 0.270505 -0.952592
43 1 22.6081 0.521597 -0.791716
44 1 21.6778 0.0973714 -0.810354
45 1 20.8128 -0.327031 -0.630625
46 1 20.6284 -1.45871 -0.775949
47 1 20.0279 -1.66152 -1.45569
48 1 20.2913 -1.67965 -2.27631
49 1 19.7058 -2.01074 -2.99575
50 1 19.7341 -1.4458 -3.93515
ITEM: TIMESTEP
16000
ITEM: NUMBER OF ATOMS
50
ITEM: BOX BOUNDS pp pp pp
-5.0000000000000000e+01 5.0000000000000000e+01
-5.0000000000000000e+01 5.0000000000000000e+01
-5.0000000000000000e+01 5.0000000000000000e+01
ITEM: ATOMS id type x y z
1 1 19.5222 1.20587 1.72514
2 1 19.5053 0.389805 2.46738
3 1 20.3663 0.646704 2.90448
4 1 20.6608 -0.247965 3.34172
5 1 19.6924 -0.0740567 3.55413
6 1 19.7801 -0.578994 2.63264
7 1 20.5224 -1.33425 2.81523
8 1 20.7727 -1.72199 3.55389
9 1 21.4087 -1.04241 3.8022
10 1 22.1684 -1.42315 3.29013
11 1 21.5767 -1.87258 2.64998
12 1 21.2404 -2.23539 1.84757
13 1 21.0499 -1.44517 1.42421
14 1 20.1233 -1.34537 1.27637
15 1 19.7562 -1.11062 0.478422
16 1 20.3664 -0.363111 0.473838
17 1 20.8766 -0.521688 1.32845
18 1 21.5203 0.0544912 0.879974
19 1 21.7167 0.605018 1.67362
20 1 20.7917 0.960615 1.57743
21 1 21.1926 0.861581 0.671832
22 1 21.6497 0.717457 -0.174488
23 1 21.1324 1.4758 -0.12131
24 1 22.0422 1.9273 -0.177036
25 1 22.8127 1.60183 -0.850278
26 1 22.8816 2.24403 -1.5618
27 1 23.3928 2.71379 -2.1793
28 1 23.2329 1.99469 -3.01797
29 1 24.029 2.34747 -3.03362
30 1 24.1227 2.10873 -4.02919
31 1 24.2816 1.39111 -3.4092
32 1 24.1475 1.2389 -2.46566
33 1 24.338 0.549742 -1.59107
34 1 23.7957 1.39029 -1.1753
35 1 23.2392 0.505359 -1.40799
36 1 23.9507 -0.263491 -1.24214
37 1 23.3606 -0.501504 -0.537219
38 1 23.4988 0.552455 -0.360681
39 1 22.5077 0.0893455 -0.257315
40 1 22.9888 0.108529 0.499804
41 1 22.4652 -0.73419 0.265817
42 1 21.5297 -0.568922 0.100041
43 1 21.8328 -0.628585 -0.833935
44 1 21.9657 -1.42083 -1.4497
45 1 22.2391 -2.18357 -1.90232
46 1 22.288 -1.38645 -2.69715
47 1 23.0117 -1.15728 -2.17099
48 1 23.949 -1.53092 -2.28866
49 1 23.7035 -0.662285 -2.81188
50 1 23.5007 -1.32613 -3.48809
ITEM: TIMESTEP
17000
ITEM: NUMBER OF ATOMS
50
ITEM: BOX BOUNDS pp pp pp
-5.0000000000000000e+01 5.0000000000000000e+01
-5.0000000000000000e+01 5.0000000000000000e+01
-5.0000000000000000e+01 5.0000000000000000e+01
ITEM: ATOMS id type x y z
1 1 18.7627 -2.54168 -0.211989
2 1 17.9695 -2.05701 -0.521502
3 1 17.3558 -1.34136 -0.517631
4 1 17.1197 -1.03007 0.378952
5 1 17.5508 -0.273629 0.739364
6 1 18.1888 -0.879151 0.25986
7 1 18.4969 -0.0343466 0.778485
8 1 18.391 -0.607464 1.59239
9 1 17.8096 -0.510761 2.32278
10 1 18.0039 -1.38792 2.49039
11 1 19.1 -1.3717 2.16812
12 1 19.381 -0.471268 2.488
13 1 19.8581 -0.406717 1.57731
14 1 20.3125 0.47884 1.42097
15 1 20.4471 0.247048 2.47332