ITEM: TIMESTEP
0
ITEM: NUMBER OF ATOMS
50
ITEM: BOX BOUNDS pp pp pp
-5.0000000000000000e+01 5.0000000000000000e+01
-5.0000000000000000e+01 5.0000000000000000e+01
-5.0000000000000000e+01 5.0000000000000000e+01
ITEM: ATOMS id type x y z
1 1 -2.35331 0 0
2 1 -1.35473 0 0
3 1 -0.357563 0 0
4 1 0.639469 0 0
5 1 1.63638 0 0
6 1 2.63316 0 0
7 1 3.62981 0 0
8 1 4.62634 0 0
9 1 5.62275 0 0
10 1 6.61902 0 0
11 1 7.61517 0 0
12 1 8.61119 0 0
13 1 9.6071 0 0
14 1 10.6029 0 0
15 1 11.5985 0 0
16 1 12.594 0 0
17 1 13.5894 0 0
18 1 14.5847 0 0
19 1 15.5798 0 0
20 1 16.5749 0 0
21 1 17.5695 0 0
22 1 18.5652 0 0
23 1 19.5608 0 0
24 1 20.5566 0 0
25 1 21.5523 0 0
26 1 22.5477 0 0
27 1 23.5434 0 0
28 1 24.5392 0 0
29 1 25.5348 0 0
30 1 26.5305 0 0
31 1 27.5251 0 0
32 1 28.5202 0 0
33 1 29.5153 0 0
34 1 30.5106 0 0
35 1 31.506 0 0
36 1 32.5015 0 0
37 1 33.4971 0 0
38 1 34.4929 0 0
39 1 35.4888 0 0
40 1 36.4848 0 0
41 1 37.481 0 0
42 1 38.4773 0 0
43 1 39.4737 0 0
44 1 40.4702 0 0
45 1 41.4668 0 0
46 1 42.4636 0 0
47 1 43.4605 0 0
48 1 44.4576 0 0
49 1 45.4547 0 0
50 1 46.4533 0 0
ITEM: TIMESTEP
1000
ITEM: NUMBER OF ATOMS
50
ITEM: BOX BOUNDS pp pp pp
-5.0000000000000000e+01 5.0000000000000000e+01
-5.0000000000000000e+01 5.0000000000000000e+01
-5.0000000000000000e+01 5.0000000000000000e+01
ITEM: ATOMS id type x y z
1 1 8.01555 0.154374 1.20021
2 1 7.76622 0.910907 0.572471
3 1 8.51376 1.42755 0.197343
4 1 8.89866 0.607295 0.70569
5 1 9.57181 1.35103 0.306981
6 1 9.20506 1.11131 -0.509083
7 1 9.70873 0.269889 -0.293924
8 1 10.4149 0.84453 -0.220574
9 1 10.7709 0.0250893 0.208231
10 1 11.4278 0.922848 0.321354
11 1 12.2317 0.30321 0.0996746
12 1 11.645 0.360382 -0.828161
13 1 12.3643 -0.288331 -1.25057
14 1 13.0178 -1.09942 -1.34953
15 1 13.2966 -0.539567 -0.607893
16 1 14.2743 -0.370579 -0.397075
17 1 15.214 -0.24011 -0.826799
18 1 16.1115 -0.439331 -0.297708
19 1 17.0668 -0.25411 -0.528082
20 1 17.9028 -0.535755 0.00991226
21 1 18.7867 -0.410582 -0.567379
22 1 19.2441 -0.534758 0.303297
23 1 19.7119 -1.23326 -0.305924
24 1 20.1036 -1.03317 0.581955
25 1 20.8895 -1.50863 0.7017
26 1 21.369 -1.27549 -0.141452
27 1 22.3793 -1.58528 -0.162617
28 1 23.3499 -1.31071 -0.538844
29 1 24.1209 -1.59346 -1.12008
30 1 24.9838 -1.07414 -1.25501
31 1 26.0095 -1.15482 -1.32702
32 1 26.9912 -0.905976 -1.31895
33 1 27.8312 -0.544623 -1.36541
34 1 28.7222 -0.17138 -1.15182
35 1 29.5752 -0.003307 -0.690454
36 1 30.2508 0.778303 -0.611462
37 1 30.7686 0.353197 0.0921001
38 1 31.6415 0.0704023 -0.0690885
39 1 31.6771 0.990207 -0.395716
40 1 32.5179 0.983992 0.139567
41 1 33.2118 0.377502 -0.0768058
42 1 34.1504 0.267955 0.330427
43 1 35.0193 0.519781 0.909194
44 1 34.7788 1.54141 1.07161
45 1 35.8227 1.40412 1.23222
46 1 36.0367 0.819018 0.434896
47 1 36.0297 0.210392 1.17008
48 1 36.6284 0.800027 1.8156
49 1 36.0624 0.388299 2.38615
50 1 36.4179 0.31377 3.41677
ITEM: TIMESTEP
2000
ITEM: NUMBER OF ATOMS
50
ITEM: BOX BOUNDS pp pp pp
-5.0000000000000000e+01 5.0000000000000000e+01
-5.0000000000000000e+01 5.0000000000000000e+01
-5.0000000000000000e+01 5.0000000000000000e+01
ITEM: ATOMS id type x y z
1 1 19.33 2.46769 0.766487
2 1 19.4902 1.63635 1.01496
3 1 19.5961 0.695362 0.994783
4 1 18.7196 0.767158 0.550287
5 1 19.4396 1.18175 -0.0175656
6 1 20.3057 1.23393 0.418721
7 1 20.9964 0.880333 -0.0327162
8 1 20.404 0.572555 -0.835159
9 1 19.8943 0.158686 -0.0961854
10 1 19.4905 -0.212372 -0.811259
11 1 18.623 -0.631548 -0.829418
12 1 18.7012 -0.243546 -0.0228653
13 1 19.2937 -0.412264 0.49556
14 1 20.2586 -0.433495 0.635519
15 1 19.9127 -1.15986 0.0101322
16 1 19.7423 -1.25116 -1.09579
17 1 19.4296 -1.13689 -1.90498
18 1 19.8721 -0.397027 -1.92804
19 1 20.5275 -1.16458 -1.81679
20 1 20.7191 -0.36413 -1.22313
21 1 21.0718 -0.635197 -0.381073
22 1 21.7226 -0.861031 -1.09143
23 1 21.7353 0.239795 -0.991661
24 1 21.7139 0.0878981 -1.93085
25 1 21.6943 -0.775726 -2.29161
26 1 22.5713 -0.851289 -1.85721
27 1 22.6282 -1.40585 -1.01493
28 1 23.3072 -0.573056 -0.895969
29 1 22.5244 -0.297232 -0.377819
30 1 23.4924 0.084505 0.00309173
31 1 23.2427 -0.87826 0.137251
32 1 24.187 -0.92261 -0.173613
33 1 25.0253 -1.04288 -0.732249
34 1 25.4143 -1.60287 -0.0619351
35 1 26.0069 -0.752596 -0.0769964
36 1 25.5147 0.193059 -0.132388
37 1 24.8965 -0.349028 0.636527
38 1 24.6065 -0.505315 1.57516
39 1 23.9496 -0.527019 0.943679
40 1 23.3502 -1.2744 1.15816
41 1 23.0906 -0.385317 1.36181
42 1 22.8167 0.333851 0.818631
43 1 23.2224 1.18365 1.24325
44 1 23.8989 1.83011 1.5459
45 1 23.2717 2.13538 0.691798
46 1 23.943 1.25336 0.495744
47 1 24.208 0.469847 1.06345
48 1 24.3238 0.746432 1.98587
49 1 24.7084 1.66709 2.23045
50 1 25.6147 1.22778 1.8464
ITEM: TIMESTEP
3000
ITEM: NUMBER OF ATOMS
50
ITEM: BOX BOUNDS pp pp pp
-5.0000000000000000e+01 5.0000000000000000e+01
-5.0000000000000000e+01 5.0000000000000000e+01
-5.0000000000000000e+01 5.0000000000000000e+01
ITEM: ATOMS id type x y z
1 1 19.9678 1.07138 -0.868503
2 1 19.3956 1.81752 -0.468793
3 1 20.0667 2.38384 0.100485
4 1 20.7827 1.89897 -0.666619
5 1 21.6385 2.44273 -0.342884
6 1 22.5396 2.28989 -0.561397
7 1 22.9489 1.55593 -0.860254
8 1 22.6822 0.565302 -0.676314
9 1 22.2557 0.54557 -1.68569
10 1 22.0506 -0.416518 -1.09834
11 1 21.4617 -0.426671 -1.7697
12 1 21.0058 -1.1488 -0.972069
13 1 21.1652 -2.12941 -1.16966
14 1 22.1883 -2.25756 -0.856214
15 1 22.1275 -1.84837 -1.75695
16 1 22.6831 -1.3167 -1.32608
17 1 22.6078 -0.760233 -1.95659
18 1 23.1337 -0.0253699 -1.69337
19 1 24.163 0.424317 -1.44397
20 1 24.4416 0.932859 -0.662952
21 1 23.6536 0.923332 0.0857672
22 1 24.3237 0.478261 0.673165
23 1 24.1944 -0.037682 -0.387689
24 1 23.8052 -0.868868 0.0484119
25 1 23.4406 -1.5706 -0.539925
26 1 22.8196 -0.712168 -0.198151
27 1 22.6649 -1.38821 0.3484
28 1 22.7 -0.81619 0.889715
29 1 22.249 -0.067185 0.531266
30 1 21.8176 -0.894224 -0.0249851
31 1 21.2759 -1.04812 0.736104
32 1 20.4487 -1.5759 1.09427
33 1 20.7883 -1.64637 2.0927
34 1 20.9997 -0.700139 2.21302
35 1 20.1644 -0.179865 1.96437
36 1 20.9852 0.0942749 1.38959
37 1 20.4946 -0.381278 0.330396
38 1 20.3392 0.242629 -0.288251
39 1 21.1799 -0.0894644 -0.599257
40 1 20.4076 0.313775 -1.31211
41 1 21.2089 0.791533 -1.08476
42 1 21.7794 1.42724 -0.486853
43 1 21.9626 1.20645 0.386185
44 1 22.8781 1.17788 0.944761
45 1 23.4371 0.302389 1.04325
46 1 23.7589 -0.65466 1.28979
47 1 22.9939 -0.28773 1.73264
48 1 22.6254 -0.223209 2.84799
49 1 22.2667 0.321874 2.1809
50 1 21.5311 0.26356 2.83516
ITEM: TIMESTEP
4000
ITEM: NUMBER OF ATOMS
50
ITEM: BOX BOUNDS pp pp pp
-5.0000000000000000e+01 5.0000000000000000e+01
-5.0000000000000000e+01 5.0000000000000000e+01
-5.0000000000000000e+01 5.0000000000000000e+01
ITEM: ATOMS id type x y z
1 1 22.545 3.38132 -1.35898
2 1 22.3638 2.70141 -2.02688
3 1 22.9623 2.45854 -1.50299
4 1 23.2418 2.0936 -0.463261
5 1 22.5081 1.53371 -0.812131
6 1 22.6354 1.47098 -1.664
7 1 23.3067 0.83201 -1.38133
8 1 23.6578 0.960658 -0.409332
9 1 22.9224 1.30434 0.162357
10 1 22.8378 0.306866 0.110502
11 1 23.364 -0.02048 -0.506863
12 1 24.0965 0.038154 -1.30647
13 1 24.4057 -0.0909643 -0.468374
14 1 24.6427 -0.761952 0.446074
15 1 25.2678 -0.247622 0.989363
16 1 24.4052 -0.463849 1.52099
17 1 24.1902 0.1964 0.969085
18 1 23.6426 -0.455097 0.677244
19 1 23.3732 -0.995618 1.56132
20 1 23.0641 -0.358496 1.41639
21 1 23.1666 0.418878 1.08239
22 1 22.2955 0.645091 1.11893
23 1 22.113 -0.30244 0.981674
24 1 22.6533 -0.706896 0.0261562
25 1 22.8631 -1.48301 0.418532
26 1 22.9303 -1.95735 1.56173
27 1 22.396 -1.39619 2.24125
28 1 21.9877 -1.17179 1.39827
29 1 21.1969 -0.714731 1.28474
30 1 20.86 -0.617595 0.483204
31 1 20.4252 -1.32051 0.834756
32 1 21.4003 -1.6924 0.537466
33 1 21.2805 -1.88948 -0.352583
34 1 21.3458 -0.834107 -0.590785
35 1 22.0074 -0.0601746 -0.397935
36 1 21.2657 0.375337 -0.849057
37 1 20.5468 -0.282694 -1.08423
38 1 20.035 0.604094 -1.65454
39 1 20.4438 0.860835 -0.899613
40 1 21.0348 1.54034 -1.41641
41 1 21.5342 1.70191 -0.700543
42 1 21.7585 1.05586 -0.0583467
43 1 20.8207 0.772698 0.167839
44 1 19.8622 0.806078 0.0918751
45 1 19.0806 0.237768 -9.37487e-06
46 1 18.4312 -0.389693 0.0259231
47 1 19.4584 -0.947495 -0.0935117
48 1 19.71 -1.83556 -0.196216
49 1 20.0077 -2.4721 0.459531
50 1 20.1558 -2.82859 -0.373194
ITEM: TIMESTEP
5000
ITEM: NUMBER OF ATOMS
50
ITEM: BOX BOUNDS pp pp pp
-5.0000000000000000e+01 5.0000000000000000e+01
-5.0000000000000000e+01 5.0000000000000000e+01
-5.0000000000000000e+01 5.0000000000000000e+01
ITEM: ATOMS id type x y z
1 1 22.6042 2.65125 1.26814
2 1 23.372 2.32998 0.83897
3 1 23.421 1.53233 0.287344
4 1 23.2531 2.05882 -0.601362
5 1 22.3355 1.72134 -0.615981
6 1 22.6484 2.25828 0.193874
7 1 21.7596 2.21615 0.820064
8 1 22.1347 1.69626 1.30736
9 1 21.6834 1.62404 2.12144
10 1 22.5096 0.925134 1.97956
11 1 22.7415 0.846755 0.925497
12 1 23.5612 0.231692 1.00175
13 1 23.1758 -0.164576 1.96244
14 1 22.2497 -0.0570708 1.44767
15 1 21.6781 -0.621717 1.5565
16 1 20.8162 -0.281098 1.44137
17 1 20.3569 0.528405 0.818572
18 1 20.1531 1.08215 -0.204292
19 1 20.6501 2.02834 -0.333171
20 1 20.8026 1.55178 0.587063
21 1 21.1875 0.650572 0.231318
22 1 21.073 0.476773 -0.54794
23 1 20.679 -0.343506 -0.0968347
24 1 21.3609 -0.432751 0.556944
25 1 21.1224 -1.25723 0.417118
26 1 20.0305 -1.22612 0.41304
27 1 19.5369 -0.571067 -0.220091
28 1 19.9501 0.113914 -0.882015
29 1 20.9102 -0.124846 -1.40845
30 1 21.8588 -0.0118127 -1.16699
31 1 21.8145 -0.81113 -0.630204
32 1 22.2024 -1.74665 -0.254972
33 1 22.4469 -1.97139 0.700359
34 1 22.4463 -1.61739 1.73686
35 1 22.8597 -0.881977 1.22309
36 1 23.2079 -1.15906 0.465504
37 1 23.7708 -0.35188 0.141936
38 1 24.0748 0.213972 -0.724728
39 1 23.3973 -0.0353071 -1.4009
40 1 22.9248 0.768069 -0.601035
41 1 22.1528 0.574139 -0.0472388
42 1 22.6597 -0.100038 0.221207
43 1 23.0535 -0.693482 -0.590397
44 1 22.4286 -1.02873 -1.43886
45 1 21.3727 -0.929642 -2.04351
46 1 21.1698 -1.55658 -1.3978
47 1 22.0151 -1.99888 -2.04724
48 1 22.5446 -2.35582 -3.08658
49 1 22.8927 -2.47523 -2.20735
50 1 23.4493 -3.27516 -2.11704
ITEM: TIMESTEP
6000
ITEM: NUMBER OF ATOMS
50
ITEM: BOX BOUNDS pp pp pp
-5.0000000000000000e+01 5.0000000000000000e+01
-5.0000000000000000e+01 5.0000000000000000e+01
-5.0000000000000000e+01 5.0000000000000000e+01
ITEM: ATOMS id type x y z
1 1 21.3779 0.80236 2.27096
2 1 22.197 0.821232 1.83098
3 1 21.6874 0.897894 1.10993
4 1 20.8603 1.40172 1.33802
5 1 21.7064 1.88143 0.6605
6 1 21.6248 1.22805 -0.0597066
7 1 22.0414 1.1734 -0.943825
8 1 21.9231 2.07423 -1.38399
9 1 20.7462 1.96352 -1.52022
10 1 20.7616 1.70454 -0.631304
11 1 20.7164 2.07917 0.264948
12 1 20.5394 1.17039 0.272887
13 1 20.5737 0.187434 0.490993
14 1 20.2761 -0.721191 0.0448079
15 1 20.9663 -0.546249 -0.425497
16 1 20.7023 0.22904 -0.786086
17 1 20.3775 0.468123 -1.60514
18 1 20.6534 1.0604 -2.29855
19 1 21.6673 1.28133 -2.11262
20 1 21.4832 0.424685 -1.61892
21 1 21.9235 -0.0353005 -0.817585
22 1 22.5461 0.694384 -0.213338
23 1 22.9376 1.50057 -0.504141
24 1 23.3463 1.49351 0.452535
25 1 23.917 0.987701 -0.0795946
26 1 23.5704 0.226314 -0.627254
27 1 23.037 -0.418908 -0.529486
28 1 22.7389 -1.34363 -0.57916
29 1 22.6502 -2.07222 -1.35507
30 1 21.8286 -1.80529 -0.976668
31 1 22.2337 -2.31967 -0.282752
32 1 21.4334 -1.74689 -0.100498
33 1 20.4829 -1.60743 -0.619572
34 1 20.6731 -2.27826 0.420086
35 1 20.7479 -1.39084 0.778572
36 1 21.4211 -0.633992 0.744721
37 1 21.7873 -0.154242 1.60395
38 1 21.4422 -1.14125 1.89433
39 1 22.4328 -1.23328 1.50214
40 1 22.1899 -1.45507 0.518725
41 1 22.2986 -0.581564 0.0735618
42 1 22.9251 -0.690308 0.854929
43 1 22.7843 0.143565 0.973606
44 1 23.5366 0.249927 1.25745
45 1 24.2383 -0.274443 1.55726
46 1 24.5396 0.313203 1.10739
47 1 23.9794 -0.466356 0.340199
48 1 23.8237 -1.33999 -0.160038
49 1 24.4792 -1.21502 -0.881363
50 1 23.6733 -0.986715 -1.2511
ITEM: TIMESTEP
7000
ITEM: NUMBER OF ATOMS
50
ITEM: BOX BOUNDS pp pp pp
-5.0000000000000000e+01 5.0000000000000000e+01
-5.0000000000000000e+01 5.0000000000000000e+01
-5.0000000000000000e+01 5.0000000000000000e+01
ITEM: ATOMS id type x y z
1 1 20.3624 -0.669901 -1.05748
2 1 20.2437 -0.395922 -0.0350736
3 1 20.9646 0.237394 -0.0825817
4 1 20.7002 1.06332 -0.682693
5 1 21.6522 1.16054 -0.487968
6 1 21.1379 2.21286 -0.887689
7 1 21.8846 2.11864 -1.47227
8 1 22.5917 1.80221 -0.799895
9 1 22.7812 1.32081 -1.55945
10 1 22.1392 0.434178 -1.82073
11 1 21.4654 1.167 -1.52797
12 1 21.2056 0.341435 -1.21487
13 1 22.1348 0.312458 -0.733811
14 1 22.7072 0.801936 -0.675072
15 1 23.287 0.159381 -0.38725
16 1 23.911 0.681189 -0.723406
17 1 23.8912 1.46291 -0.88063
18 1 24.1651 2.43934 -0.453025
19 1 23.6524 2.13735 0.364928
20 1 23.3293 1.28231 -0.0216314
21 1 23.3972 0.443831 0.771875
22 1 22.5103 0.75788 0.352255
23 1 21.9624 -0.132267 0.261613
24 1 21.3923 -0.923598 0.104189
25 1 21.6568 -1.69772 -0.596489
26 1 22.1274 -1.62862 0.282519
27 1 21.8813 -2.11533 1.19297
28 1 22.079 -1.07017 1.28158
29 1 22.8562 -0.728227 0.715478
30 1 23.2381 -1.36028 0.238877
31 1 23.9777 -1.71451 -0.279316
32 1 22.6802 -1.50843 -0.741505
33 1 22.4918 -0.644791 -0.746618
34 1 21.5082 -0.628761 -0.83887
35 1 21.3486 -0.485053 -1.81521
36 1 20.683 -0.729301 -2.1985
37 1 21.1724 -1.552 -1.56617
38 1 20.3395 -1.80427 -1.19542
39 1 20.7096 -1.6997 -0.326241
40 1 20.4698 -1.19508 0.573836
41 1 20.632 -0.260675 0.910267
42 1 20.5477 0.667778 0.764562
43 1 21.4486 0.985954 0.996853
44 1 22.1264 0.740529 1.79959
45 1 22.4114 -0.229309 1.85317
46 1 21.4437 0.0494769 2.2544
47 1 21.956 -0.665808 2.97992
48 1 22.7854 -0.421821 3.62007
49 1 23.0304 -0.466756 2.66293
50 1 23.4299 -0.0523884 1.82596
ITEM: TIMESTEP
8000
ITEM: NUMBER OF ATOMS
50
ITEM: BOX BOUNDS pp pp pp
-5.0000000000000000e+01 5.0000000000000000e+01
-5.0000000000000000e+01 5.0000000000000000e+01
-5.0000000000000000e+01 5.0000000000000000e+01
ITEM: ATOMS id type x y z
1 1 22.5204 2.5686 -0.983293
2 1 22.0615 1.94264 -0.403122
3 1 23.0151 1.71691 -0.467873
4 1 23.1046 1.55935 0.492068
5 1 22.6371 0.976039 1.12391
6 1 23.5573 0.603028 1.47551
7 1 24.3634 0.549466 1.4133
8 1 24.5566 -0.324124 1.45454
9 1 24.5052 -0.481986 0.417021
10 1 23.869 -0.0452848 0.00427809
11 1 23.0173 0.182681 0.26468
12 1 23.3696 -0.374396 1.20288
13 1 23.3917 -0.403413 1.98239
14 1 23.2973 0.0956241 2.93244
15 1 22.7645 -0.740347 2.67983
16 1 22.1549 -0.290021 2.28009
17 1 21.2198 -0.249528 2.01272
18 1 20.6529 0.502808 1.58282
19 1 20.1295 -0.282917 1.74252
20 1 20.4116 -0.305415 0.748305
21 1 20.2631 0.59731 0.289943
22 1 20.1487 1.33928 -0.467539
23 1 21.0993 1.5049 -0.358974
24 1 22.1892 0.924587 -0.315973
25 1 21.9354 0.378435 0.327562
26 1 21.9855 -0.0835007 1.26817
27 1 21.4138 -0.796782 1.13584
28 1 21.6715 -1.43432 0.361469
29 1 22.3543 -1.4904 1.30374
30 1 22.5454 -0.802883 0.560104
31 1 23.4966 -1.29316 0.410207
32 1 23.1452 -1.64002 -0.156935
33 1 22.9919 -0.668756 -0.479413
34 1 22.5261 -0.821616 -1.27115
35 1 21.6516 -1.03953 -0.995413
36 1 21.9939 -0.132924 -0.580593
37 1 22.8599 0.163973 -1.06145
38 1 22.6695 1.10092 -1.41178
39 1 22.387 0.372231 -2.00704
40 1 21.5439 0.723487 -2.30787
41 1 21.3495 -0.322242 -2.56331
42 1 21.4396 -1.09964 -2.1175
43 1 20.6853 -1.51517 -2.31291
44 1 20.1744 -0.83581 -2.34441
45 1 19.7045 0.145641 -2.17738
46 1 20.1209 0.334176 -1.12773
47 1 20.76 0.215403 -1.9025
48 1 20.773 -0.45917 -1.30777
49 1 20.8011 -0.0999378 -0.428785
50 1 21.2206 -0.464211 0.084361
ITEM: TIMESTEP
9000
ITEM: NUMBER OF ATOMS
50
ITEM: BOX BOUNDS pp pp pp
-5.0000000000000000e+01 5.0000000000000000e+01
-5.0000000000000000e+01 5.0000000000000000e+01
-5.0000000000000000e+01 5.0000000000000000e+01
ITEM: ATOMS id type x y z
1 1 21.2282 0.645951 2.74307
2 1 21.6599 1.01755 3.59777
3 1 22.3972 0.782692 2.81046
4 1 23.3493 0.23069 3.18486
5 1 22.6432 -0.4418 2.96767
6 1 22.4751 -0.144581 2.26812
7 1 22.6502 0.278349 1.32754
8 1 22.5237 1.06114 0.799403
9 1 21.6758 1.19839 1.23399
10 1 21.5655 0.191777 1.4102
11 1 20.8142 0.519527 1.80523
12 1 20.5801 0.359384 0.866023
13 1 20.806 1.02157 0.0518192
14 1 20.88 1.7966 0.144205
15 1 20.6238 1.76883 -0.802942
16 1 20.8653 1.28969 -1.50039
17 1 21.676 1.3476 -1.93499
18 1 22.5339 0.955771 -2.21107
19 1 22.0865 0.159217 -2.44408
20 1 21.0331 0.0929208 -2.46427
21 1 21.2621 0.239243 -1.23358
22 1 22.3548 0.358696 -1.15505
23 1 22.4156 -0.426993 -1.56426
24 1 21.4641 -0.842053 -1.4523
25 1 21.8942 -0.710768 -0.591572
26 1 20.8022 -0.743205 -0.596241
27 1 21.3984 -1.38327 0.139931
28 1 21.9235 -2.05127 0.0497126
29 1 22.2508 -1.65119 0.962326
30 1 21.3812 -1.43006 1.18117
31 1 22.0349 -1.10066 1.95377
32 1 23.0771 -1.26551 1.49106
33 1 23.7778 -1.07022 1.03279
34 1 23.119 -0.416525 0.699934
35 1 22.3064 -0.64871 1.05705
36 1 21.9944 -0.124596 0.418806
37 1 21.424 0.155395 0.0641487
38 1 21.6374 0.93937 -0.528771
39 1 22.0067 1.71182 0.0534535
40 1 22.8246 1.83386 -0.598837
41 1 23.0701 1.36933 -1.12455
42 1 23.5951 0.451978 -1.18833
43 1 23.0267 0.520419 -0.304188
44 1 22.8115 -0.361787 -0.298722
45 1 23.2121 -1.32593 -0.071293
46 1 22.8946 -1.46073 -0.921613
47 1 22.4468 -1.41519 -1.75593
48 1 21.7813 -1.12776 -2.52775
49 1 21.9559 -0.620119 -3.34917
50 1 22.2898 -1.53482 -3.69463
ITEM: TIMESTEP
10000
ITEM: NUMBER OF ATOMS
50
ITEM: BOX BOUNDS pp pp pp
-5.0000000000000000e+01 5.0000000000000000e+01
-5.0000000000000000e+01 5.0000000000000000e+01
-5.0000000000000000e+01 5.0000000000000000e+01
ITEM: ATOMS id type x y z
1 1 19.0693 -2.52652 -0.375575
2 1 18.4423 -2.10053 -0.0303106
3 1 19.093 -1.76808 0.536572
4 1 19.4566 -0.729848 0.690028
5 1 19.9915 -0.500487 1.41102
6 1 19.8415 0.603765 1.34207
7 1 19.1271 0.837028 0.627252
8 1 19.7844 0.261089 0.38756
9 1 20.0201 1.14019 0.271945
10 1 20.8464 1.35837 -0.173657
11 1 21.8541 1.29928 0.143385
12 1 21.8947 2.02926 -0.512673
13 1 21.3889 1.07456 -1.00141
14 1 22.3869 1.53292 -1.25449
15 1 22.4084 0.557968 -1.24238
16 1 22.8426 -0.194613 -1.68413
17 1 23.1419 0.55223 -1.96019
18 1 23.1084 0.0775755 -2.72934
19 1 23.2199 -0.807323 -2.5088
20 1 23.7076 -1.4631 -2.07811
21 1 24.0296 -2.17305 -1.30923
22 1 23.5069 -2.87981 -0.899499
23 1 22.9427 -2.20497 -1.44181
24 1 23.3957 -1.34849 -1.05774
25 1 23.7365 -0.834885 -0.267336
26 1 23.0687 -0.291568 -0.736464
27 1 22.0392 -0.49474 -0.487646
28 1 21.3598 0.346997 -0.397684
29 1 20.7672 -0.443182 0.0107572
30 1 20.7429 -0.898639 0.842361
31 1 21.6309 -1.10734 1.3655
32 1 21.4861 -0.309777 1.85765
33 1 22.2735 -0.271778 1.2251
34 1 22.1451 -0.823068 0.482215
35 1 21.6574 0.0434271 0.483512
36 1 20.7809 0.360439 0.65395
37 1 21.2662 0.839998 1.36807
38 1 20.8041 1.56284 1.11003
39 1 21.8018 1.71423 1.0558
40 1 22.5655 1.76318 1.63108
41 1 22.5437 0.984888 1.127
42 1 22.8813 0.926256 0.181364
43 1 22.7584 -0.0574817 0.262768
44 1 23.625 0.163922 -0.0210062
45 1 23.8039 0.840029 0.694327
46 1 23.6927 1.64362 0.379478
47 1 24.8235 1.29041 0.420865
48 1 25.2641 0.563776 0.88103
49 1 24.7581 -0.349711 0.789986
50 1 24.7229 0.210739 -0.0632092
ITEM: TIMESTEP
11000
ITEM: NUMBER OF ATOMS
50
ITEM: BOX BOUNDS pp pp pp
-5.0000000000000000e+01 5.0000000000000000e+01
-5.0000000000000000e+01 5.0000000000000000e+01
-5.0000000000000000e+01 5.0000000000000000e+01
ITEM: ATOMS id type x y z
1 1 20.7603 2.42243 -3.01761
2 1 20.5005 1.76599 -3.82398
3 1 20.4872 0.888645 -3.21865
4 1 21.2871 1.50624 -2.72895
5 1 20.7729 1.08558 -2.05412
6 1 20.8124 0.133019 -2.39977
7 1 20.7281 -0.938751 -2.50425
8 1 21.507 -1.30273 -2.0832
9 1 21.7262 -0.441909 -2.68806
10 1 21.6289 -0.357397 -1.61037
11 1 21.5142 0.525922 -1.59844
12 1 22.1652 0.619942 -2.32243
13 1 22.608 -0.269112 -1.90542
14 1 22.9801 -1.09723 -1.52682
15 1 23.1384 -0.95005 -0.502846
16 1 23.1624 -0.118114 -0.246144
17 1 23.8844 -0.265055 0.675794
18 1 23.3852 -1.22379 0.669169
19 1 23.6326 -1.14597 1.65211
20 1 24.358 -0.898568 2.17319
21 1 24.2986 -0.160287 1.58519
22 1 23.1469 -0.19706 1.50297
23 1 22.5749 -0.457949 2.1677
24 1 23.1169 -1.20787 2.54491
25 1 22.4566 -2.05614 2.22267
26 1 22.4688 -1.34754 1.41004
27 1 22.1325 -0.599837 0.732767
28 1 21.6972 -0.758169 -0.152035
29 1 22.0801 -1.22434 -0.915371
30 1 22.003 -2.18536 -1.09339
31 1 21.3831 -1.83715 -0.284922
32 1 20.9674 -1.65195 0.672247
33 1 21.4524 -1.03417 1.50562
34 1 20.8921 -0.344271 1.03092
35 1 20.858 -0.12099 1.85132
36 1 20.182 0.64239 1.91435
37 1 19.8446 0.959578 1.18464
38 1 20.7101 1.30583 0.653329
39 1 21.173 1.70447 1.43304
40 1 21.2564 1.05834 2.05609
41 1 21.6126 0.582609 1.10638
42 1 22.3441 1.31219 0.681036
43 1 22.3448 0.821261 0.0296754
44 1 22.5607 1.83102 -0.228866
45 1 23.0649 1.12887 -0.635725
46 1 23.5214 1.23628 0.00741627
47 1 23.0756 0.38675 0.613872
48 1 23.2825 1.10389 1.16313
49 1 22.6498 0.777571 1.71977
50 1 22.3098 0.39294 2.582
ITEM: TIMESTEP
12000
ITEM: NUMBER OF ATOMS
50
ITEM: BOX BOUNDS pp pp pp
-5.0000000000000000e+01 5.0000000000000000e+01
-5.0000000000000000e+01 5.0000000000000000e+01
-5.0000000000000000e+01 5.0000000000000000e+01
ITEM: ATOMS id type x y z
1 1 23.6759 1.08879 -0.883364
2 1 24.5769 0.914273 -1.23082
3 1 24.2453 0.102627 -1.17589
4 1 24.8956 0.496407 -2.09784
5 1 24.3448 -0.0443559 -2.59233
6 1 25.035 0.16302 -3.23686
7 1 25.158 -0.202458 -4.13942
8 1 24.363 -0.172616 -4.51476
9 1 24.1267 0.31312 -3.70995
10 1 23.4225 0.262747 -2.87146
11 1 23.3445 0.356637 -1.94363
12 1 23.345 -0.155534 -0.999968
13 1 23.21 0.166836 -0.104103
14 1 22.7481 0.158811 0.672866
15 1 23.5613 0.471146 1.03695
16 1 24.0246 -0.446503 1.49839
17 1 23.2004 -0.68113 1.23058
18 1 22.712 -0.138985 1.85616
19 1 21.784 -0.214655 2.29674
20 1 21.7316 0.817305 2.30789
21 1 20.7012 0.758279 2.3528
22 1 20.284 -0.0309418 2.63158
23 1 20.1706 -0.0540887 1.5466
24 1 21.001 0.280285 1.34371
25 1 20.8738 -0.674794 1.08216
26 1 21.7672 -0.370858 0.918037
27 1 22.1028 -0.697877 -0.0746478
28 1 22.5592 -1.54828 0.0640619
29 1 22.0259 -2.34895 -0.211322
30 1 21.2175 -1.87526 0.0529433
31 1 20.2627 -2.34575 -0.0206324
32 1 20.3556 -1.79518 0.916275
33 1 20.3215 -1.03215 0.191069
34 1 19.491 -1.46903 0.455583
35 1 18.672 -1.02065 0.648663
36 1 18.9998 -0.460374 1.50594
37 1 19.4912 -0.314518 0.62591
38 1 20.3669 0.171542 0.42344
39 1 21.0105 -0.26014 0.0603421
40 1 21.6005 0.316177 -0.724488
41 1 22.4877 0.782854 -0.400601
42 1 22.6538 1.77085 -0.0893757
43 1 22.8641 1.24316 0.631011
44 1 22.5935 0.978575 1.65814
45 1 21.8515 0.706034 1.0894
46 1 21.5566 0.595513 0.225049
47 1 21.6792 1.39479 -0.309098
48 1 20.6346 1.20994 0.0996426
49 1 19.8652 0.94445 0.961083
50 1 19.5339 1.89092 0.947571
ITEM: TIMESTEP
13000
ITEM: NUMBER OF ATOMS
50
ITEM: BOX BOUNDS pp pp pp
-5.0000000000000000e+01 5.0000000000000000e+01
-5.0000000000000000e+01 5.0000000000000000e+01
-5.0000000000000000e+01 5.0000000000000000e+01
ITEM: ATOMS id type x y z
1 1 21.9993 1.85546 1.08657
2 1 22.9713 1.70537 0.84748
3 1 22.9423 0.860768 1.30526
4 1 22.9439 -0.264232 1.6933
5 1 23.3627 -0.917179 2.32087
6 1 23.739 -1.37942 1.41659
7 1 24.1435 -0.788714 0.766118
8 1 24.9237 -0.196362 0.639287
9 1 24.4155 0.718665 0.737928
10 1 23.9704 -0.0706198 0.0238681
11 1 23.1602 -0.245116 0.640324
12 1 22.1019 0.144323 0.843832
13 1 21.4667 0.95744 1.36245
14 1 22.1318 0.687935 2.09306
15 1 23.0264 0.182692 2.60763
16 1 22.9638 -0.431729 3.37284
17 1 22.2156 -0.567967 2.70516
18 1 22.3074 -1.1293 1.96649
19 1 21.843 -0.253621 1.74462
20 1 21.3605 0.0406469 2.55606
21 1 20.5576 0.36181 1.91198
22 1 20.0475 0.140928 1.11231
23 1 20.048 0.0356662 0.129079
24 1 19.7777 0.138982 -0.770587
25 1 19.9801 -0.832332 -0.592715
26 1 20.572 -0.739896 -1.33178
27 1 20.9201 -0.154399 -0.51851
28 1 21.9817 -0.0606475 -0.336831
29 1 22.0005 -0.759017 0.345625
30 1 21.0065 -0.778443 0.395004
31 1 21.3108 -1.23529 -0.49715
32 1 21.9189 -1.55004 -1.34348
33 1 21.0202 -1.6797 -1.52557
34 1 20.8403 -0.953161 -2.5417
35 1 21.2251 -1.57413 -3.14752
36 1 21.8738 -0.817377 -2.69638
37 1 22.4307 -0.568497 -1.87887
38 1 22.7492 0.122158 -2.45459
39 1 23.0008 0.51823 -1.60976
40 1 23.008 0.312243 -0.639903
41 1 23.0261 0.768432 0.137041
42 1 23.0638 1.49215 -0.772872
43 1 22.1535 1.17749 -0.397928
44 1 21.4396 1.65155 0.123279
45 1 21.1852 0.591102 0.2841
46 1 21.1544 0.825944 -0.830243
47 1 21.7012 0.876629 -1.44933
48 1 21.8026 0.658465 -2.45792
49 1 21.4051 0.14546 -3.34203
50 1 21.31 0.976645 -4.03248
ITEM: TIMESTEP
14000
ITEM: NUMBER OF ATOMS
50
ITEM: BOX BOUNDS pp pp pp
-5.0000000000000000e+01 5.0000000000000000e+01
-5.0000000000000000e+01 5.0000000000000000e+01
-5.0000000000000000e+01 5.0000000000000000e+01
ITEM: ATOMS id type x y z
1 1 20.6374 1.71855 1.26811
2 1 20.9238 0.933296 1.66966
3 1 21.7984 1.19414 1.92691
4 1 21.4381 0.495026 2.47656
5 1 20.6079 -0.0803857 2.45728
6 1 19.8639 -0.280411 1.90264
7 1 20.4488 -0.227485 1.17832
8 1 20.7347 -0.992646 1.68232
9 1 21.5004 -0.275822 1.79538
10 1 21.422 -0.536662 0.785221
11 1 21.1669 0.368119 0.641272
12 1 21.3944 0.866206 -0.173194
13 1 20.676 0.251971 -0.42552
14 1 20.8658 0.354575 -1.45679
15 1 20.2251 1.09985 -0.894651
16 1 19.5799 0.530424 -0.52999
17 1 19.6888 -0.32301 -0.111374
18 1 20.2938 -0.785367 0.316589
19 1 20.4683 -0.770433 -0.914545
20 1 21.2142 -0.788414 -1.4346
21 1 21.5989 -0.723754 -0.412634
22 1 22.3787 -0.170576 -0.861395
23 1 21.9956 -0.090466 -1.8212
24 1 22.7285 -0.458635 -2.07659
25 1 22.0872 -1.27763 -1.64194
26 1 21.9644 -2.18631 -1.06235
27 1 22.9848 -2.0586 -0.978168
28 1 22.4419 -1.54567 -0.432928
29 1 22.5269 -2.19382 0.181498
30 1 23.3824 -1.83619 0.362293
31 1 23.7224 -0.948077 0.462587
32 1 23.3006 -1.02889 -0.270939
33 1 22.3466 -0.863656 0.282942
34 1 22.9637 -0.604758 1.15589
35 1 23.0504 0.111928 0.779448
36 1 23.0141 0.41035 -0.264453
37 1 22.201 0.39713 0.272485
38 1 22.0853 0.558465 1.23925
39 1 23.108 0.966362 1.69347
40 1 23.2461 1.90177 1.41352
41 1 23.2912 2.01627 0.340221
42 1 22.7071 1.2754 0.444775
43 1 23.7075 1.00839 0.166134
44 1 23.1941 1.36201 -0.754978
45 1 24.1932 1.39993 -0.863363
46 1 24.1126 0.462429 -0.682791
47 1 23.4322 0.479229 -1.41888
48 1 23.9673 0.0270252 -2.13104
49 1 23.1643 0.559858 -2.41419
50 1 22.654 0.298962 -2.8663
ITEM: TIMESTEP
15000
ITEM: NUMBER OF ATOMS
50
ITEM: BOX BOUNDS pp pp pp
-5.0000000000000000e+01 5.0000000000000000e+01
-5.0000000000000000e+01 5.0000000000000000e+01
-5.0000000000000000e+01 5.0000000000000000e+01
ITEM: ATOMS id type x y z
1 1 20.7447 2.16915 -0.545879
2 1 20.1107 1.82582 0.168606
3 1 19.2998 1.21232 0.0208885
4 1 19.1453 0.418779 0.595731
5 1 18.7049 0.165954 -0.303702
6 1 19.3875 -0.547119 -0.132074
7 1 20.0645 -0.294016 -0.649521
8 1 20.8575 -0.918383 -0.271823
9 1 20.7233 -0.123842 0.463079
10 1 20.3779 0.686976 -0.241156
11 1 20.3751 0.660846 -1.1941
12 1 19.7344 1.09459 -1.95186
13 1 20.3704 1.74175 -1.70336
14 1 21.2005 1.3635 -2.0699
15 1 21.8469 0.933734 -1.51402
16 1 21.555 0.196562 -2.07788
17 1 21.1144 -0.302989 -1.39127
18 1 21.8471 -1.03362 -1.15504
19 1 22.3532 -0.510517 -1.72279
20 1 23.0804 -0.183926 -1.5922
21 1 23.8102 0.607433 -1.05169
22 1 23.9776 0.324303 -0.00415041
23 1 23.8611 -0.507419 0.467414
24 1 23.2462 -1.22338 0.362058
25 1 22.5435 -1.50844 0.963195
26 1 23.2635 -2.20518 0.762047
27 1 24.0209 -1.72528 0.675829
28 1 24.8726 -1.81462 0.218362
29 1 24.0935 -1.68811 -0.468281
30 1 24.2766 -1.05492 -0.678507
31 1 23.3797 -0.958493 -0.954334
32 1 22.8032 -0.510069 -0.386364
33 1 22.173 0.181754 -0.904347
34 1 21.2515 -0.0511153 -0.464456
35 1 21.2869 0.850994 -0.637679
36 1 21.3712 1.20615 0.316324
37 1 22.2488 1.02973 -0.18005
38 1 23.0143 1.61812 -0.236198
39 1 22.3866 2.21337 0.375269
40 1 22.6783 1.47134 0.895412
41 1 22.3013 0.68178 1.35267
42 1 22.4234 -0.0837832 2.1059
43 1 22.7158 0.224214 2.89876
44 1 23.3935 -0.346392 2.40043
45 1 23.4177 -1.20862 2.88447
46 1 22.9992 -2.00212 2.47901
47 1 23.492 -1.52522 1.73944
48 1 23.071 -0.547139 1.31482
49 1 22.9787 0.227408 0.527081
50 1 22.2549 -0.231849 0.495847
ITEM: TIMESTEP
16000
ITEM: NUMBER OF ATOMS
50
ITEM: BOX BOUNDS pp pp pp
-5.0000000000000000e+01 5.0000000000000000e+01
-5.0000000000000000e+01 5.0000000000000000e+01
-5.0000000000000000e+01 5.0000000000000000e+01
ITEM: ATOMS id type x y z
1 1 21.122 -0.257882 -1.29424
2 1 20.1956 -0.6619 -1.64626
3 1 20.7771 -1.00765 -2.35732
4 1 21.6374 -0.408651 -2.19344
5 1 21.8036 -1.22754 -1.63418
6 1 22.6006 -0.933978 -2.1245
7 1 23.3423 -0.319753 -2.0429
8 1 23.022 -0.361548 -1.0929
9 1 22.1998 -0.341269 -0.814474
10 1 22.4347 0.310478 -1.49841
11 1 22.964 1.07475 -1.08886
12 1 23.035 1.65695 -1.88486
13 1 23.4878 0.897531 -2.08057
14 1 23.9153 1.3842 -1.26582
15 1 24.002 1.2513 -0.309021
16 1 23.2055 1.75948 -0.271542
17 1 23.2818 2.23598 0.542496
18 1 23.4319 1.57825 1.40502
19 1 22.672 1.21267 0.835403
20 1 21.7858 0.894173 1.18318
21 1 22.483 0.684253 1.82024
22 1 22.0914 -0.281503 1.62398
23 1 22.2451 -0.704419 0.798013
24 1 22.6346 -0.847647 -0.0945996
25 1 22.0103 -1.60875 0.140263
26 1 21.45 -1.26345 -0.593647
27 1 20.9236 -1.36399 0.303012
28 1 21.1187 -2.09421 1.07978
29 1 22.0786 -1.94819 1.24308
30 1 22.8629 -1.51764 1.04486
31 1 23.2599 -0.925969 1.71328
32 1 23.5561 -0.899745 0.710567
33 1 23.956 -0.140661 0.239565
34 1 23.0026 0.255033 0.140784
35 1 22.0841 0.414607 0.122279
36 1 21.4056 0.691321 -0.597103
37 1 21.9457 1.48582 -0.12008
38 1 21.4993 2.40019 0.244375
39 1 22.0784 1.94962 1.0619
40 1 21.1437 1.54965 0.655608
41 1 20.6401 0.729774 0.633379
42 1 20.9131 0.172229 1.52234
43 1 21.355 0.121072 2.43774
44 1 20.6865 -0.677724 2.1443
45 1 20.3442 -0.688872 1.21454
46 1 21.1854 -0.943348 1.20671
47 1 21.3262 -0.336694 0.508366
48 1 20.6834 -0.391859 -0.21828
49 1 20.0945 -1.00226 -0.307545
50 1 20.5259 -1.55223 -1.04452
ITEM: TIMESTEP
17000
ITEM: NUMBER OF ATOMS
50
ITEM: BOX BOUNDS pp pp pp
-5.0000000000000000e+01 5.0000000000000000e+01
-5.0000000000000000e+01 5.0000000000000000e+01
-5.0000000000000000e+01 5.0000000000000000e+01
ITEM: ATOMS id type x y z
1 1 24.9882 1.55732 0.535019
2 1 24.7881 1.47944 -0.436624
3 1 23.7209 1.63913 -0.547518
4 1 23.1157 0.800484 -0.30652
5 1 23.1371 0.515619 -1.17737
6 1 23.7403 -0.204612 -0.7067
7 1 22.884 -0.722271 -0.587905
8 1 23.1518 -1.4833 -0.69666