ITEM: TIMESTEP
0
ITEM: NUMBER OF ATOMS
50
ITEM: BOX BOUNDS pp pp pp
-5.0000000000000000e+01 5.0000000000000000e+01
-5.0000000000000000e+01 5.0000000000000000e+01
-5.0000000000000000e+01 5.0000000000000000e+01
ITEM: ATOMS id type x y z
1 1 -2.40181 0 0
2 1 -1.40251 0 0
3 1 -0.403923 0 0
4 1 0.594604 0 0
5 1 1.59307 0 0
6 1 2.59147 0 0
7 1 3.5898 0 0
8 1 4.58807 0 0
9 1 5.58628 0 0
10 1 6.58443 0 0
11 1 7.58251 0 0
12 1 8.58053 0 0
13 1 9.57848 0 0
14 1 10.5764 0 0
15 1 11.5742 0 0
16 1 12.572 0 0
17 1 13.5697 0 0
18 1 14.5673 0 0
19 1 15.5649 0 0
20 1 16.5624 0 0
21 1 17.5598 0 0
22 1 18.5572 0 0
23 1 19.555 0 0
24 1 20.5531 0 0
25 1 21.5511 0 0
26 1 22.5489 0 0
27 1 23.5469 0 0
28 1 24.545 0 0
29 1 25.5428 0 0
30 1 26.5402 0 0
31 1 27.5376 0 0
32 1 28.5351 0 0
33 1 29.5327 0 0
34 1 30.5303 0 0
35 1 31.528 0 0
36 1 32.5258 0 0
37 1 33.5236 0 0
38 1 34.5215 0 0
39 1 35.5195 0 0
40 1 36.5175 0 0
41 1 37.5156 0 0
42 1 38.5137 0 0
43 1 39.5119 0 0
44 1 40.5102 0 0
45 1 41.5085 0 0
46 1 42.5069 0 0
47 1 43.5054 0 0
48 1 44.5039 0 0
49 1 45.5025 0 0
50 1 46.5018 0 0
ITEM: TIMESTEP
1000
ITEM: NUMBER OF ATOMS
50
ITEM: BOX BOUNDS pp pp pp
-5.0000000000000000e+01 5.0000000000000000e+01
-5.0000000000000000e+01 5.0000000000000000e+01
-5.0000000000000000e+01 5.0000000000000000e+01
ITEM: ATOMS id type x y z
1 1 7.44416 -0.269165 0.13928
2 1 7.53878 0.588604 0.793352
3 1 8.12854 1.29765 0.837569
4 1 7.24729 1.65948 1.06474
5 1 7.55928 1.9904 0.135358
6 1 8.15879 1.25789 -0.188692
7 1 9.1051 1.1585 -0.50761
8 1 9.57344 0.395017 -0.122641
9 1 10.3665 0.0336746 0.105221
10 1 11.2663 0.469918 0.0110958
11 1 11.7104 0.360293 -0.801026
12 1 12.3682 0.29816 -0.0780776
13 1 12.9384 -0.0667725 -0.748139
14 1 13.1359 -0.907797 -1.21658
15 1 13.9489 -0.584839 -0.633017
16 1 14.9616 -0.483864 -0.626533
17 1 15.8606 -0.482367 -0.976031
18 1 16.6079 -0.849962 -0.467966
19 1 17.5872 -0.876385 -0.489527
20 1 18.1912 -0.129593 -0.289522
21 1 19.1807 -0.247973 -0.376921
22 1 19.3386 -0.564752 0.527432
23 1 19.6244 -1.40464 -0.0401894
24 1 20.2537 -1.10146 0.655417
25 1 21.1369 -1.55779 0.699253
26 1 21.6721 -1.45286 -0.15337
27 1 22.6872 -1.64163 -0.196216
28 1 23.5376 -1.28588 -0.673788
29 1 24.2978 -1.77502 -1.08391
30 1 24.9951 -1.16108 -1.40567
31 1 25.9907 -1.18042 -1.17168
32 1 26.9716 -0.955777 -1.36726
33 1 27.8152 -0.602258 -1.37667
34 1 28.6668 -0.178553 -1.21711
35 1 29.4917 0.0663936 -0.694327
36 1 30.1543 0.838635 -0.48204
37 1 30.7363 0.738067 0.271446
38 1 31.1491 0.20137 -0.398597
39 1 31.5179 1.11343 -0.646938
40 1 32.2548 0.434003 -0.617853
41 1 32.3618 1.03488 0.145208
42 1 33.2856 0.464799 -0.0592405
43 1 34.2376 0.912248 -0.0393396
44 1 35.1013 1.2956 0.428219
45 1 36.093 1.10773 0.606257
46 1 36.7795 0.790253 1.27257
47 1 37.1764 0.309744 1.94569
48 1 37.8447 0.49343 2.65078
49 1 36.9763 0.644039 3.17466
50 1 37.4724 -0.193406 3.68294
ITEM: TIMESTEP
2000
ITEM: NUMBER OF ATOMS
50
ITEM: BOX BOUNDS pp pp pp
-5.0000000000000000e+01 5.0000000000000000e+01
-5.0000000000000000e+01 5.0000000000000000e+01
-5.0000000000000000e+01 5.0000000000000000e+01
ITEM: ATOMS id type x y z
1 1 18.4806 1.92922 2.01638
2 1 18.087 0.957504 1.79073
3 1 17.3036 1.09984 1.16388
4 1 17.4821 2.13193 1.16113
5 1 18.5137 1.96823 0.908486
6 1 18.148 1.11356 0.477517
7 1 17.4553 1.58192 -0.191893
8 1 18.3198 1.30175 -0.578042
9 1 19.1516 0.870277 -0.903066
10 1 18.6206 0.207422 -1.25752
11 1 19.186 -0.356668 -1.8796
12 1 19.1857 -1.36937 -2.29327
13 1 18.4022 -1.20698 -1.77575
14 1 18.8544 -1.54841 -0.958438
15 1 19.6255 -1.15887 -1.27435
16 1 19.2128 -0.546054 -0.612985
17 1 19.3722 -1.12191 0.231111
18 1 19.9888 -0.386577 0.193582
19 1 20.2551 -0.00876738 -0.7186
20 1 20.5653 -0.579177 -1.59353
21 1 20.539 -1.15598 -0.772146
22 1 20.7268 -1.10363 0.256622
23 1 21.2003 -0.30919 -0.249578
24 1 21.7779 -1.10735 0.0701112
25 1 21.5369 -1.30687 -0.862822
26 1 21.9417 -1.43172 -1.70296
27 1 22.4039 -2.25081 -1.35005
28 1 22.7591 -1.30348 -1.15273
29 1 22.8796 -0.328974 -1.13466
30 1 23.1127 -0.168181 -1.99012
31 1 23.9765 -0.338386 -1.32653
32 1 23.9724 -1.17724 -1.9224
33 1 24.9944 -1.31605 -1.52992
34 1 25.6657 -0.616592 -1.45627
35 1 26.498 -0.290985 -1.07039
36 1 26.0773 -0.561656 -0.134273
37 1 25.2026 -0.250025 -0.438988
38 1 25.9672 0.468501 -0.182528
39 1 26.0282 0.350652 0.855147
40 1 25.5147 -0.14925 1.49031
41 1 24.8646 0.354082 0.894488
42 1 23.86 0.15894 1.16349
43 1 24.3451 0.0248319 1.96202
44 1 24.3758 0.980784 1.84979
45 1 25.4102 0.7774 1.88592
46 1 25.9986 0.872886 2.71442
47 1 26.9369 1.03266 2.77183
48 1 26.248 1.90491 3.01066
49 1 26.1455 1.66948 1.92907
50 1 25.3298 1.69237 2.51674
ITEM: TIMESTEP
3000
ITEM: NUMBER OF ATOMS
50
ITEM: BOX BOUNDS pp pp pp
-5.0000000000000000e+01 5.0000000000000000e+01
-5.0000000000000000e+01 5.0000000000000000e+01
-5.0000000000000000e+01 5.0000000000000000e+01
ITEM: ATOMS id type x y z
1 1 22.86 3.91328 -2.21068
2 1 22.6128 3.05397 -1.31476
3 1 21.7035 2.76695 -0.799107
4 1 21.8487 1.82801 -0.497873
5 1 21.4037 2.08089 0.13847
6 1 20.7268 2.27114 0.882903
7 1 20.9676 1.3231 1.21178
8 1 22.0173 1.60043 1.19614
9 1 22.7203 1.34226 0.480717
10 1 23.5428 1.46267 -0.0788478
11 1 23.0137 0.576669 -0.620245
12 1 22.3122 0.0188812 -1.2217
13 1 21.5277 -0.593163 -1.49758
14 1 21.2114 -0.607306 -2.31552
15 1 21.2407 -1.74191 -1.94561
16 1 20.4877 -1.34458 -1.60833
17 1 20.1159 -2.07048 -2.24335
18 1 20.5391 -2.37647 -1.33948
19 1 20.3512 -2.07811 -0.382241
20 1 21.238 -2.39493 -0.531115
21 1 21.1596 -2.22198 0.420952
22 1 22.0039 -1.67942 0.848082
23 1 22.3858 -2.19301 -0.0224053
24 1 22.8658 -1.39576 0.219708
25 1 22.3188 -0.992732 -0.585182
26 1 23.132 -1.12167 -1.03282
27 1 23.4708 -0.3689 -0.446526
28 1 24.5094 -0.686359 -0.121422
29 1 24.0314 -0.173085 0.721549
30 1 24.5066 0.382462 0.438259
31 1 24.7541 1.24589 0.0122549
32 1 24.8748 1.33028 0.961668
33 1 24.9736 0.638026 1.65133
34 1 24.4246 1.06939 2.21453
35 1 23.7939 0.923053 1.34797
36 1 23.0853 0.263024 1.36723
37 1 22.9466 0.374591 0.509861
38 1 22.2677 -0.0524628 -0.1451
39 1 21.4337 -0.0993488 -0.659899
40 1 20.7989 -0.811637 -0.667167
41 1 21.5045 -0.695519 0.154819
42 1 20.6502 -1.07283 0.45978
43 1 19.6515 -1.05916 0.406069
44 1 19.7028 -0.229733 -0.178609
45 1 19.5523 -0.0581839 0.838293
46 1 20.0346 -0.635445 1.55903
47 1 20.8801 -0.39847 2.07703
48 1 21.1503 -0.115308 1.19169
49 1 21.9871 0.383973 0.875071
50 1 21.2083 0.419047 0.28039
ITEM: TIMESTEP
4000
ITEM: NUMBER OF ATOMS
50
ITEM: BOX BOUNDS pp pp pp
-5.0000000000000000e+01 5.0000000000000000e+01
-5.0000000000000000e+01 5.0000000000000000e+01
-5.0000000000000000e+01 5.0000000000000000e+01
ITEM: ATOMS id type x y z
1 1 23.4441 0.848473 0.823013
2 1 24.1034 1.46003 0.121189
3 1 24.9723 1.51308 -0.552892
4 1 24.9901 0.836297 -1.24814
5 1 25.3604 1.44676 -2.12767
6 1 24.3976 1.31278 -2.271
7 1 23.9301 0.582693 -2.58905
8 1 23.1117 0.638503 -2.29201
9 1 22.5502 1.35166 -1.80728
10 1 22.1596 1.00599 -0.872781
11 1 23.1355 1.09245 -0.830516
12 1 23.2748 0.268935 -0.0195724
13 1 23.818 0.352562 -0.964135
14 1 24.332 -0.510058 -1.11644
15 1 23.6933 -0.377961 -1.84801
16 1 23.0283 -0.471452 -1.05117
17 1 22.7467 -1.46987 -0.728443
18 1 22.3111 -0.738136 -0.367417
19 1 21.5801 -1.37333 -0.178682
20 1 20.7615 -1.77953 0.215788
21 1 21.0033 -2.62981 -0.0279857
22 1 22.1055 -2.31484 0.20918
23 1 21.5811 -2.57856 1.02639
24 1 21.4647 -1.71642 0.886203
25 1 21.8519 -1.72552 1.82205
26 1 22.4618 -0.958313 1.95319
27 1 22.5093 -0.0552085 2.3557
28 1 21.8872 0.421816 1.7184
29 1 21.4744 1.51272 1.80703
30 1 20.7212 0.951062 1.8849
31 1 20.7297 0.757252 2.89101
32 1 20.0937 0.1731 3.13634
33 1 20.3912 -0.366938 2.34556
34 1 20.988 -0.295572 1.70078
35 1 20.6463 0.192808 0.908145
36 1 20.8711 0.920978 0.187635
37 1 21.6805 0.886444 0.728839
38 1 22.3533 0.37866 0.133018
39 1 22.7188 -0.320992 0.928039
40 1 21.7365 -0.39198 0.87128
41 1 21.3389 -0.0864204 0.0625866
42 1 21.3099 0.420192 -0.654242
43 1 21.7522 -0.315286 -1.06092
44 1 20.7098 -0.507383 -0.609158
45 1 20.6287 -0.337558 -1.51503
46 1 20.6667 0.610575 -1.73623
47 1 20.3676 0.789366 -0.674233
48 1 19.5769 0.447279 -1.33024
49 1 19.2295 0.246383 -0.363275
50 1 19.9494 -0.0977105 0.120247
ITEM: TIMESTEP
5000
ITEM: NUMBER OF ATOMS
50
ITEM: BOX BOUNDS pp pp pp
-5.0000000000000000e+01 5.0000000000000000e+01
-5.0000000000000000e+01 5.0000000000000000e+01
-5.0000000000000000e+01 5.0000000000000000e+01
ITEM: ATOMS id type x y z
1 1 27.4924 0.675592 1.24809
2 1 26.7717 0.326053 0.710122
3 1 25.9605 -0.0303704 1.00449
4 1 25.7178 0.299527 0.0725293
5 1 24.9731 0.436863 0.786443
6 1 24.8915 -0.171544 1.66681
7 1 24.1518 -0.662936 0.953031
8 1 23.34 -1.22798 0.770534
9 1 23.188 -0.293117 0.679441
10 1 22.8251 0.455324 0.0637307
11 1 23.4617 0.917657 -0.622517
12 1 24.1915 0.680065 -1.39032
13 1 24.4001 -0.317313 -1.14944
14 1 23.9486 -0.598491 -0.428233
15 1 24.3053 0.329515 -0.107147
16 1 24.5553 1.25837 0.323295
17 1 23.6548 1.33721 0.251181
18 1 23.3342 0.717427 1.01781
19 1 22.3501 0.493369 1.22759
20 1 21.5463 0.235002 1.73811
21 1 22.2974 0.571758 2.3296
22 1 21.6071 0.170561 2.85701
23 1 21.2698 -0.5884 2.16867
24 1 20.5992 -0.205925 1.59587
25 1 20.2498 -1.13335 1.30245
26 1 19.3892 -1.72825 1.15886
27 1 19.455 -1.98582 0.215147
28 1 19.717 -1.58709 -0.714189
29 1 18.7986 -1.2553 -0.273763
30 1 18.4379 -1.13287 -1.26514
31 1 18.6962 -0.658689 -1.9674
32 1 19.8319 -0.493928 -2.17781
33 1 19.724 0.478049 -2.13386
34 1 18.8706 0.552169 -1.58253
35 1 19.2383 -0.241122 -1.15341
36 1 20.2093 0.0798397 -0.916235
37 1 20.6843 -0.0333324 -0.100375
38 1 19.8932 -0.896735 0.0250194
39 1 20.8845 -0.830308 0.581448
40 1 21.5753 -0.592205 0.0228455
41 1 22.597 -0.602645 -0.0623146
42 1 22.1981 0.0661199 -0.751062
43 1 21.657 0.38462 -0.0488275
44 1 21.5058 1.05805 0.679271
45 1 20.8257 1.20043 -0.125162
46 1 20.4584 1.4115 -1.18402
47 1 21.3656 0.796414 -1.30572
48 1 22.2775 0.923743 -1.38648
49 1 21.9839 0.874847 -2.41595
50 1 21.1426 0.53764 -2.1875
ITEM: TIMESTEP
6000
ITEM: NUMBER OF ATOMS
50
ITEM: BOX BOUNDS pp pp pp
-5.0000000000000000e+01 5.0000000000000000e+01
-5.0000000000000000e+01 5.0000000000000000e+01
-5.0000000000000000e+01 5.0000000000000000e+01
ITEM: ATOMS id type x y z
1 1 23.8404 -1.10729 3.89194
2 1 24.0115 -0.0775942 3.93423
3 1 24.0484 -0.481728 4.86873
4 1 24.8542 -0.668005 4.41579
5 1 25.3582 -0.228579 3.69731
6 1 24.8503 0.526358 3.89823
7 1 24.6411 1.24051 3.3454
8 1 23.9341 1.6316 3.03933
9 1 23.0642 1.6843 3.3287
10 1 22.4795 0.948519 3.48232
11 1 23.3687 0.533168 3.20653
12 1 23.402 0.717955 2.12377
13 1 22.6577 0.435374 1.69354
14 1 22.1294 0.159329 0.930453
15 1 22.3064 0.823857 0.190922
16 1 21.6044 1.39132 0.602244
17 1 20.5882 1.32283 0.503459
18 1 19.7264 0.803743 0.491998
19 1 20.0525 -0.273214 0.693489
20 1 21.0258 -0.583804 0.431365
21 1 20.5751 0.159137 -0.28244
22 1 20.9313 0.879969 -0.84516
23 1 20.9958 0.700539 -1.85336
24 1 20.1759 0.994729 -1.52927
25 1 19.4366 0.278266 -1.58443
26 1 18.7686 -0.385815 -1.50767
27 1 19.2402 -1.28095 -1.15505
28 1 20.2752 -1.44721 -0.983446
29 1 20.951 -0.861177 -0.535706
30 1 20.6599 -0.106018 -1.21059
31 1 20.7542 -0.931531 -1.70127
32 1 21.3622 -1.66324 -2.31449
33 1 21.04 -1.79877 -3.11897
34 1 21.3916 -0.745901 -3.5698
35 1 21.9997 -0.0364935 -3.19194
36 1 22.4894 -0.79108 -2.84577
37 1 22.9421 -1.20032 -3.57291
38 1 23.5544 -0.846004 -2.58475
39 1 22.8929 -0.945129 -1.84397
40 1 22.221 -1.56615 -2.03568
41 1 21.8125 -1.47873 -1.19978
42 1 22.0049 -0.911156 -0.441788
43 1 21.8324 0.0285345 -0.327415
44 1 21.9514 -0.380508 -1.31839
45 1 21.9625 0.557956 -1.886
46 1 21.4462 1.57688 -1.52829
47 1 22.333 1.5798 -1.82126
48 1 22.4312 1.43211 -0.83722
49 1 22.8493 0.553343 -0.781707
50 1 23.2764 -0.163728 -0.361233
ITEM: TIMESTEP
7000
ITEM: NUMBER OF ATOMS
50
ITEM: BOX BOUNDS pp pp pp
-5.0000000000000000e+01 5.0000000000000000e+01
-5.0000000000000000e+01 5.0000000000000000e+01
-5.0000000000000000e+01 5.0000000000000000e+01
ITEM: ATOMS id type x y z
1 1 21.9676 -0.605003 5.30288
2 1 21.1611 -0.462125 5.20891
3 1 21.5386 0.331339 5.59769
4 1 21.1854 0.416856 4.62731
5 1 21.5205 0.314431 3.80832
6 1 22.3945 -0.0560664 3.89801
7 1 22.513 0.867548 4.34979
8 1 22.4381 1.72171 3.82253
9 1 23.0006 1.05891 3.41155
10 1 22.975 1.50777 2.5646
11 1 22.0514 1.30311 2.07154
12 1 21.2849 1.55277 2.83684
13 1 21.011 0.625477 2.51065
14 1 21.0072 0.869364 1.55229
15 1 21.197 0.73242 0.657213
16 1 20.2388 0.426591 0.787782
17 1 19.9602 1.0408 0.0259402
18 1 20.4317 1.80638 0.275536
19 1 21.253 1.8791 -0.132162
20 1 21.6448 1.05704 -0.405224
21 1 21.3353 0.020027 -0.75068
22 1 21.6079 -0.0201944 -1.79241
23 1 21.3328 -0.777317 -2.48437
24 1 20.8313 -0.0398321 -2.74802
25 1 20.7715 0.459809 -3.69001
26 1 20.0683 0.81163 -4.36854
27 1 19.9122 0.0549504 -4.83754
28 1 20.6698 -0.483793 -4.97009
29 1 20.8229 -0.621454 -4.08149
30 1 21.5362 -0.970948 -3.66427
31 1 21.2613 -1.79427 -3.91005
32 1 22.1904 -1.81514 -3.63431
33 1 22.4332 -1.52688 -2.85244
34 1 23.1857 -1.88246 -3.36475
35 1 23.7035 -2.46771 -2.66924
36 1 23.1013 -2.61669 -1.97519
37 1 23.1855 -1.69466 -2.10241
38 1 24.2847 -1.86003 -2.00534
39 1 24.3205 -0.821254 -1.60655
40 1 23.5354 -0.416324 -1.761
41 1 22.4995 -0.271938 -1.47899
42 1 22.5787 0.260403 -0.71607
43 1 23.6651 0.0230528 -0.80677
44 1 23.3421 0.12494 0.0463919
45 1 23.6071 0.231011 1.01404
46 1 23.4897 -0.426252 1.89962
47 1 24.1669 0.275791 2.089
48 1 23.3238 0.754129 1.92561
49 1 22.5335 0.141549 1.56352
50 1 22.4294 0.961423 0.960371
ITEM: TIMESTEP
8000
ITEM: NUMBER OF ATOMS
50
ITEM: BOX BOUNDS pp pp pp
-5.0000000000000000e+01 5.0000000000000000e+01
-5.0000000000000000e+01 5.0000000000000000e+01
-5.0000000000000000e+01 5.0000000000000000e+01
ITEM: ATOMS id type x y z
1 1 19.8953 1.30062 4.58623
2 1 19.6721 1.78978 3.77415
3 1 18.915 1.15156 3.51754
4 1 18.7661 1.52142 2.59267
5 1 19.7927 1.08758 2.44467
6 1 19.5707 0.378102 3.19314
7 1 19.7431 0.342515 4.26666
8 1 20.727 -0.0236252 3.96829
9 1 21.1051 0.795574 3.5592
10 1 20.7979 1.55885 3.12091
11 1 20.7405 1.45309 2.15312
12 1 20.9544 0.569861 2.17881
13 1 21.3665 0.618556 1.24178
14 1 20.4764 0.344473 0.778333
15 1 21.1377 0.127836 -0.0952633
16 1 21.6143 -0.293467 -0.725644
17 1 20.6631 -0.44602 -1.04504
18 1 20.4346 -0.710307 -1.82898
19 1 21.4327 -0.742072 -1.63402
20 1 21.6514 0.103346 -1.66027
21 1 21.4132 0.808846 -2.38333
22 1 20.99 1.56369 -2.83071
23 1 21.3022 2.37877 -3.40314
24 1 21.5109 1.9123 -4.08126
25 1 21.4995 0.910337 -3.66522
26 1 22.4045 0.793541 -4.03101
27 1 23.027 0.391781 -3.42075
28 1 22.1204 -0.177485 -3.3302
29 1 21.8391 -1.15003 -3.76343
30 1 21.626 -1.0698 -2.80562
31 1 22.6941 -1.13146 -2.76169
32 1 23.2584 -1.1034 -1.96292
33 1 23.8717 -0.888645 -1.17335
34 1 24.9475 -0.931773 -1.45452
35 1 25.8635 -1.12484 -1.10587
36 1 25.2649 -1.08476 -0.350459
37 1 25.8894 -0.520466 0.181835
38 1 26.6718 -0.103704 0.70843
39 1 26.1848 -0.340171 1.54942
40 1 25.422 -1.01376 1.65774
41 1 25.2293 -0.525659 0.968733
42 1 24.5154 -1.05526 0.761267
43 1 23.552 -0.61888 1.09816
44 1 23.6746 -0.665645 0.10867
45 1 22.7587 -0.517425 0.327713
46 1 21.9693 -1.16819 0.0917992
47 1 21.2161 -1.26716 0.926551
48 1 20.3611 -0.769371 0.707692
49 1 20.9115 -0.944827 -0.0608756
50 1 21.0544 -1.51423 -0.889933
ITEM: TIMESTEP
9000
ITEM: NUMBER OF ATOMS
50
ITEM: BOX BOUNDS pp pp pp
-5.0000000000000000e+01 5.0000000000000000e+01
-5.0000000000000000e+01 5.0000000000000000e+01
-5.0000000000000000e+01 5.0000000000000000e+01
ITEM: ATOMS id type x y z
1 1 19.1683 0.339728 -0.661833
2 1 18.2618 0.177011 -0.0984973
3 1 18.1454 1.0223 0.297902
4 1 18.3613 1.02182 1.34108
5 1 19.1142 1.13092 0.798659
6 1 19.2743 1.11009 1.80629
7 1 19.1653 0.111062 1.60325
8 1 19.2885 -0.221702 0.73359
9 1 19.619 -0.966687 1.39673
10 1 20.1164 0.0275429 1.31522
11 1 19.8849 0.514455 0.3886
12 1 20.2436 1.28752 0.987094
13 1 20.5832 1.73764 0.209414
14 1 20.6913 0.932531 -0.491669
15 1 20.275 -0.0722611 -0.603339
16 1 21.1147 0.0810054 -1.18497
17 1 22.1289 0.508804 -1.16073
18 1 22.001 -0.131931 -1.88753
19 1 22.0962 -0.709513 -1.28202
20 1 22.2155 -0.906369 -2.30524
21 1 23.101 -0.73011 -2.24564
22 1 23.7606 -0.169268 -1.96252
23 1 24.2173 0.447063 -2.44735
24 1 23.5513 1.06447 -2.68751
25 1 23.5679 1.57207 -1.79792
26 1 22.9029 1.79367 -1.07356
27 1 23.6704 1.53988 -0.504332
28 1 24.5169 1.30928 0.136093
29 1 23.7129 0.798176 0.290328
30 1 23.9529 0.358237 -0.53267
31 1 24.5226 -0.491612 -0.63992
32 1 24.9035 0.265607 -0.017545
33 1 24.4926 -0.275394 0.926496
34 1 25.3869 -0.617316 0.943947
35 1 25.669 -1.61946 0.790021
36 1 24.8782 -1.87778 1.31417
37 1 24.5163 -1.49219 0.370686
38 1 23.7853 -2.33976 0.288391
39 1 23.0531 -1.7201 0.32119
40 1 23.2572 -1.61353 1.18824
41 1 23.3091 -0.84696 0.653197
42 1 22.4971 -0.904076 1.26922
43 1 21.7083 -0.246753 0.922191
44 1 20.9576 -0.180629 0.635504
45 1 20.546 -1.1376 1.04306
46 1 21.3639 -1.2163 0.340995
47 1 22.0818 -0.619005 -0.0335164
48 1 22.5178 0.256992 -0.016916
49 1 21.767 0.852377 0.406507
50 1 22.5836 0.846052 0.917186
ITEM: TIMESTEP
10000
ITEM: NUMBER OF ATOMS
50
ITEM: BOX BOUNDS pp pp pp
-5.0000000000000000e+01 5.0000000000000000e+01
-5.0000000000000000e+01 5.0000000000000000e+01
-5.0000000000000000e+01 5.0000000000000000e+01
ITEM: ATOMS id type x y z
1 1 21.4735 -1.36036 -2.31138
2 1 21.0171 -1.84183 -1.68956
3 1 20.4279 -1.36524 -2.30104
4 1 19.3775 -1.22527 -2.40441
5 1 19.4341 -0.271933 -1.97401
6 1 20.1591 -0.0159371 -2.58909
7 1 20.6651 -0.0667306 -1.76671
8 1 20.3538 0.781703 -1.47841
9 1 21.0527 0.808436 -0.722094
10 1 21.2972 0.0537932 -0.973436
11 1 21.3411 0.775701 -1.65725
12 1 20.7191 0.917255 -2.43391
13 1 20.9751 0.609181 -3.14963
14 1 21.7681 1.1786 -3.07985
15 1 22.6323 1.42719 -2.70935
16 1 22.5011 0.408073 -2.4464
17 1 23.4987 0.243864 -2.15152
18 1 23.1086 -0.618585 -1.9809
19 1 23.0695 -0.512056 -1.08367
20 1 23.3762 0.433441 -0.995161
21 1 23.0469 0.158125 -0.0957714
22 1 23.8308 -0.0461894 0.100357
23 1 23.8134 0.977924 0.367431
24 1 23.9933 0.42399 1.13099
25 1 23.298 1.07525 1.59943
26 1 23.7989 1.93337 1.36677
27 1 23.5065 2.40276 2.17096
28 1 23.5167 2.38353 3.15013
29 1 23.1715 1.36487 2.96141
30 1 23.458 1.22433 3.98317
31 1 23.8257 0.462585 4.38908
32 1 23.5813 -0.407692 3.94424
33 1 23.5529 0.116634 2.88216
34 1 23.9735 -0.478351 2.13592
35 1 23.373 -1.32267 1.75895
36 1 23.8779 -0.907608 1.11793
37 1 23.1599 -0.184694 1.23866
38 1 22.8044 -0.865206 0.673752
39 1 22.4345 -0.794651 -0.304971
40 1 21.6186 -1.18169 0.058078
41 1 20.9847 -0.931161 -0.775697
42 1 20.5989 -1.05266 0.150118
43 1 19.8231 -0.567432 -0.373176
44 1 20.1141 0.169663 -0.502648
45 1 20.806 0.0229239 0.286841
46 1 21.6864 0.147099 0.336313
47 1 21.6957 -0.391309 1.15339
48 1 20.8652 -1.04466 1.13468
49 1 20.1645 -1.07531 1.817
50 1 19.878 -1.97105 2.0423
ITEM: TIMESTEP
11000
ITEM: NUMBER OF ATOMS
50
ITEM: BOX BOUNDS pp pp pp
-5.0000000000000000e+01 5.0000000000000000e+01
-5.0000000000000000e+01 5.0000000000000000e+01
-5.0000000000000000e+01 5.0000000000000000e+01
ITEM: ATOMS id type x y z
1 1 22.5714 -0.28475 -0.368674
2 1 21.6168 -0.38581 0.0666732
3 1 21.4678 0.0196377 -0.821037
4 1 21.3887 0.921157 -1.21496
5 1 22.3493 1.22811 -0.855672
6 1 22.5924 0.201728 -1.22458
7 1 21.9651 -0.442188 -1.68215
8 1 21.6226 0.374915 -2.0073
9 1 22.3433 1.2346 -1.94171
10 1 23.2558 1.27043 -1.26323
11 1 23.6656 0.460764 -1.5448
12 1 24.5294 0.164214 -2.03541
13 1 25.1693 -0.173993 -1.29451
14 1 25.9573 0.378887 -1.06067
15 1 25.165 0.535241 -0.516766
16 1 26.0056 0.227175 0.0509288
17 1 26.0627 1.22591 -0.0465644
18 1 25.4746 0.92032 0.658922
19 1 24.8381 0.237893 0.539654
20 1 23.9631 -0.0541568 0.250401
21 1 23.6389 0.407543 -0.413092
22 1 23.6231 1.01294 0.45738
23 1 22.5678 0.922995 0.147178
24 1 21.7029 0.589925 0.278798
25 1 20.6431 0.862997 0.630576
26 1 21.3487 0.740925 1.26112
27 1 22.3031 1.01133 1.09793
28 1 22.1301 -0.0421747 1.05212
29 1 22.7595 -0.74784 0.955012
30 1 21.7918 -1.14822 1.27797
31 1 22.286 -0.828465 2.23585
32 1 21.447 -0.456431 2.14138
33 1 20.911 0.0433638 2.70727
34 1 20.1694 0.815572 2.36186
35 1 19.5501 0.348808 1.92806
36 1 19.6075 -0.122194 1.01479
37 1 20.2919 -0.309042 1.89819
38 1 20.8875 -0.691038 1.07482
39 1 20.3264 -0.289219 0.290827
40 1 20.0301 0.117024 -0.457427
41 1 19.609 0.197527 -1.46165
42 1 20.5651 -0.468687 -1.55844
43 1 21.1281 -1.0206 -0.867826
44 1 20.5584 -1.46902 -1.16069
45 1 19.7602 -1.26226 -1.51848
46 1 19.1422 -0.735378 -1.08143
47 1 19.7828 -0.940504 -0.257893
48 1 20.6474 -1.33396 -0.07911
49 1 21.0117 -1.77149 0.900885
50 1 20.2751 -1.49453 1.45547
ITEM: TIMESTEP
12000
ITEM: NUMBER OF ATOMS
50
ITEM: BOX BOUNDS pp pp pp
-5.0000000000000000e+01 5.0000000000000000e+01
-5.0000000000000000e+01 5.0000000000000000e+01
-5.0000000000000000e+01 5.0000000000000000e+01
ITEM: ATOMS id type x y z
1 1 21.8772 -0.497046 1.18853
2 1 21.8956 -1.03405 0.342475
3 1 22.3522 -0.153786 0.2282
4 1 23.2362 0.174276 -0.354418
5 1 23.5435 0.585072 0.501941
6 1 23.9918 0.794731 -0.308238
7 1 24.3223 0.138842 -0.893586
8 1 23.7621 -0.657092 -0.735258
9 1 24.3176 -0.967199 0.133009
10 1 24.5904 -0.610688 1.00687
11 1 24.3626 -1.15556 1.6783
12 1 23.6774 -0.869984 2.41286
13 1 23.4797 -0.250218 1.71079
14 1 23.6951 0.49332 2.34461
15 1 22.777 0.973498 2.48053
16 1 21.8798 0.807359 2.7595
17 1 21.3544 0.235981 2.25122
18 1 22.3971 0.0117537 2.12908
19 1 22.1216 0.49551 1.33006
20 1 23.0432 0.734022 1.41104
21 1 22.7362 1.24261 0.607389
22 1 22.2885 1.97378 0.331206
23 1 22.2226 2.78713 -0.200027
24 1 21.7385 3.3513 0.632949
25 1 21.363 2.57448 1.55058
26 1 21.2819 2.04519 0.623426
27 1 21.436 1.49952 1.50636
28 1 20.9138 0.840509 0.880643
29 1 20.2383 1.55705 0.984421
30 1 20.2818 1.60934 1.97194
31 1 19.6391 0.853883 1.42736
32 1 20.1582 0.143654 0.97663
33 1 20.9601 -0.331331 0.75347
34 1 20.268 -0.960118 0.474764
35 1 20.0141 -0.865394 -0.405595
36 1 20.8582 -1.56366 -0.324473
37 1 21.1417 -1.17393 -0.999991
38 1 21.7847 -0.476783 -1.09585
39 1 22.5593 -1.01273 -0.694878
40 1 23.0261 -0.993309 -1.68274
41 1 22.2632 -0.658775 -2.43346
42 1 21.2524 -0.58176 -2.22041
43 1 21.2692 -1.69374 -1.87476
44 1 22.1579 -1.47659 -1.85279
45 1 22.2282 -1.8167 -2.73292
46 1 22.4493 -2.14683 -3.63807
47 1 21.7635 -1.63626 -4.14431
48 1 21.3667 -0.928542 -3.37962
49 1 20.4709 -0.428178 -3.17167
50 1 19.6917 -0.982575 -3.48711
ITEM: TIMESTEP
13000
ITEM: NUMBER OF ATOMS
50
ITEM: BOX BOUNDS pp pp pp
-5.0000000000000000e+01 5.0000000000000000e+01
-5.0000000000000000e+01 5.0000000000000000e+01
-5.0000000000000000e+01 5.0000000000000000e+01
ITEM: ATOMS id type x y z
1 1 23.3051 0.38733 0.0728773
2 1 23.8331 0.777323 0.982348
3 1 23.9408 -0.182564 0.623539
4 1 23.1494 -0.479309 1.04663
5 1 22.4688 -0.11027 1.75639
6 1 22.3843 -1.0947 1.9039
7 1 22.7116 -0.630203 2.77205
8 1 21.8408 -0.831998 3.13381
9 1 21.1647 -0.0705283 3.12624
10 1 21.0591 0.146044 2.22496
11 1 20.2966 -0.459636 2.17115
12 1 20.6104 -1.10899 1.33112
13 1 21.3707 -0.768067 2.11065
14 1 21.5818 -0.691609 1.11502
15 1 20.8377 -0.114371 0.808435
16 1 19.8448 0.0553873 0.992386
17 1 19.7836 1.07997 0.588515
18 1 19.1024 1.71216 0.214853
19 1 19.9211 1.89794 -0.318169
20 1 20.6777 1.90007 0.322954
21 1 21.3424 1.0927 0.525205
22 1 22.26 0.951914 -0.00212254
23 1 22.0011 0.271762 0.763177
24 1 21.5377 0.805486 1.53688
25 1 20.7372 1.41827 1.79905
26 1 20.6857 2.46737 1.28671
27 1 20.6145 3.3771 0.814446
28 1 20.1927 3.03193 -0.0443744
29 1 20.684 2.83225 -0.93463
30 1 21.3987 2.32443 -0.529763
31 1 21.3827 1.38937 -0.593474
32 1 21.3994 0.51459 -0.550456
33 1 21.6085 -0.376453 -1.08189
34 1 20.7429 -0.233222 -0.521105
35 1 21.4569 -0.632904 -0.124879
36 1 21.0035 -1.27715 0.205051
37 1 21.641 -1.58181 -0.523
38 1 22.3557 -1.28871 0.0827262
39 1 23.0484 -1.60273 -0.519837
40 1 22.8604 -0.626048 -0.676536
41 1 23.6679 -1.08621 -1.31636
42 1 24.5123 -1.38153 -1.8696
43 1 24.431 -2.08698 -2.55571
44 1 23.5645 -1.50415 -2.56469
45 1 23.9055 -0.444076 -2.34802
46 1 24.7079 -0.190099 -2.90999
47 1 24.4877 -0.567269 -3.66543
48 1 24.324 -1.5903 -3.84711
49 1 24.9298 -2.21505 -3.47937
50 1 25.1315 -3.20647 -3.33456
ITEM: TIMESTEP
14000
ITEM: NUMBER OF ATOMS
50
ITEM: BOX BOUNDS pp pp pp
-5.0000000000000000e+01 5.0000000000000000e+01
-5.0000000000000000e+01 5.0000000000000000e+01
-5.0000000000000000e+01 5.0000000000000000e+01
ITEM: ATOMS id type x y z
1 1 20.757 -2.12313 1.29412
2 1 21.7842 -2.61144 1.67183
3 1 22.0533 -2.55436 0.822379
4 1 21.1287 -2.80573 0.32489
5 1 21.5867 -2.17201 -0.328244
6 1 21.5403 -1.35952 0.272905
7 1 22.4245 -1.2741 0.00185888
8 1 21.9535 -0.328566 0.116394
9 1 20.9933 -0.533248 0.351659
10 1 20.166 -0.424998 0.792163
11 1 20.0117 -1.35516 0.786399
12 1 19.6215 -1.7557 -0.0310889
13 1 20.5665 -2.02888 0.0922068
14 1 20.33 -2.46541 -0.816648
15 1 20.7428 -1.58663 -0.833224
16 1 20.8115 -0.700865 -0.917176
17 1 20.8738 -0.0928231 -1.5941
18 1 21.6088 0.638914 -1.46407
19 1 20.806 1.23093 -0.970038
20 1 21.1341 0.849673 -0.0429458
21 1 20.1634 0.434435 -0.162934
22 1 19.3093 0.139606 0.343734
23 1 19.305 0.977914 0.686369
24 1 18.3427 1.14978 0.614717
25 1 18.9348 1.97209 0.887434
26 1 19.8702 2.34695 1.02997
27 1 19.4885 3.2051 0.390528
28 1 20.385 3.35401 0.254094
29 1 20.0512 2.73937 -0.377514
30 1 20.788 3.14967 -0.99757
31 1 20.994 2.22592 -1.50634
32 1 21.8472 2.8247 -1.4636
33 1 22.3869 2.0913 -1.75521
34 1 22.4858 1.32994 -1.16915
35 1 22.1686 0.78106 -0.521084
36 1 22.2675 0.865497 0.494981
37 1 23.1676 0.569248 0.758721
38 1 23.3834 0.0378199 -0.195384
39 1 23.9496 0.919006 0.123471
40 1 24.6857 1.62154 -0.253874
41 1 24.7566 0.437193 -0.416067
42 1 25.1954 -0.0263202 0.311078
43 1 26.2387 -0.284941 0.283906
44 1 26.7522 -1.02782 0.869364
45 1 26.4397 -1.98013 0.800887
46 1 25.8802 -1.5416 1.53648
47 1 25.6812 -0.654243 1.07324
48 1 25.6178 -1.11369 0.265313
49 1 25.8697 -1.17102 -0.652184
50 1 25.2002 -1.9193 -0.782646
ITEM: TIMESTEP
15000
ITEM: NUMBER OF ATOMS
50
ITEM: BOX BOUNDS pp pp pp
-5.0000000000000000e+01 5.0000000000000000e+01
-5.0000000000000000e+01 5.0000000000000000e+01
-5.0000000000000000e+01 5.0000000000000000e+01
ITEM: ATOMS id type x y z
1 1 21.7697 -3.07324 -0.654071
2 1 21.7135 -3.63229 -1.44125
3 1 22.3907 -3.22109 -2.05898
4 1 21.6434 -2.88405 -2.53497
5 1 20.798 -2.9426 -2.01411
6 1 21.1638 -2.11603 -1.87004
7 1 21.4324 -2.00324 -0.91772
8 1 20.6562 -2.48266 -0.728275
9 1 20.0536 -2.16104 -1.46844
10 1 19.2781 -2.0414 -2.25984
11 1 19.318 -1.20653 -2.86732
12 1 19.549 -0.94847 -1.8356
13 1 19.5839 -0.150923 -2.52322
14 1 20.3107 -0.416292 -3.05308
15 1 20.9388 -0.532378 -2.29789
16 1 20.7533 0.606925 -2.03164
17 1 20.0554 0.18017 -1.24098
18 1 20.8679 -0.468947 -1.03011
19 1 21.5975 -0.796592 -1.57046
20 1 22.1436 0.00100183 -1.13356
21 1 22.0044 -0.28175 -0.162266
22 1 21.2884 0.19786 0.232095
23 1 20.3967 0.460664 -0.341993
24 1 21.0374 0.99072 -0.993344
25 1 20.1491 1.27821 -1.2777
26 1 20.7137 2.05266 -1.48984
27 1 21.2244 2.45862 -2.15095
28 1 21.8415 1.8547 -1.66578
29 1 22.4792 1.35667 -0.994628
30 1 22.9109 2.27608 -0.746641
31 1 23.7056 2.87848 -0.708947
32 1 23.8003 3.30886 0.34523
33 1 23.3469 4.02284 0.943597
34 1 22.9999 3.196 1.24701
35 1 22.7513 2.77329 0.372777
36 1 23.1088 1.88869 0.425243
37 1 23.6843 1.38893 -0.131555
38 1 23.0527 0.685682 0.156174
39 1 22.3194 0.886571 0.858415
40 1 22.1188 0.00528262 1.23929
41 1 23.0234 -0.343936 1.64965
42 1 24.0511 -0.5503 2.02169
43 1 23.6465 0.287284 2.64627
44 1 23.3931 0.857178 3.35626
45 1 24.1987 0.221902 3.79891
46 1 24.6416 -0.334625 4.5987
47 1 24.1532 0.286748 5.06854
48 1 24.6123 -0.564729 5.74466
49 1 24.8566 -1.46313 5.29815
50 1 24.9725 -1.78579 6.19253
ITEM: TIMESTEP
16000
ITEM: NUMBER OF ATOMS
50
ITEM: BOX BOUNDS pp pp pp
-5.0000000000000000e+01 5.0000000000000000e+01
-5.0000000000000000e+01 5.0000000000000000e+01
-5.0000000000000000e+01 5.0000000000000000e+01
ITEM: ATOMS id type x y z
1 1 21.1312 -3.00884 -4.15219
2 1 20.241 -2.59507 -4.38304
3 1 19.7096 -2.2027 -3.57729
4 1 20.2656 -1.5289 -3.04592
5 1 20.7833 -2.45663 -2.82648
6 1 21.5141 -2.38255 -2.14218
7 1 22.4293 -2.2259 -2.42042
8 1 22.5402 -1.58816 -3.18617
9 1 22.4415 -1.82833 -4.18491
10 1 21.534 -1.98762 -3.71926
11 1 20.9459 -1.19374 -3.81164
12 1 21.555 -0.352609 -3.63259
13 1 22.4645 0.0745149 -3.33302
14 1 22.1066 0.0755473 -2.36161
15 1 21.618 -0.961479 -2.6345
16 1 21.9622 -0.864496 -1.75189
17 1 21.1611 -0.340208 -1.78799
18 1 21.12 -0.993796 -1.1869
19 1 21.802 -1.76651 -0.977846
20 1 22.1919 -0.892087 -0.72136
21 1 23.2309 -0.395825 -0.706797
22 1 24.0862 0.171666 -0.49545
23 1 24.4374 1.15214 -0.797228
24 1 23.4655 1.17414 -0.340996
25 1 22.5789 0.817906 -0.276146
26 1 22.506 0.208488 0.514652
27 1 21.9875 -0.680924 0.811315
28 1 22.9208 -0.717174 0.667055
29 1 23.6387 0.0745021 0.497475
30 1 23.4426 0.691805 1.1253
31 1 23.4371 1.74016 0.797152
32 1 23.0324 2.55289 1.27153
33 1 22.286 2.73484 1.91621
34 1 22.8362 1.89718 2.36374
35 1 21.8489 1.8644 2.12455
36 1 21.1925 1.60319 1.37901
37 1 21.5381 0.959335 1.94305
38 1 22.4596 0.441216 1.61389
39 1 22.7612 -0.496565 1.75496
40 1 22.9988 0.0889706 2.65407
41 1 22.6977 0.0649279 3.71395
42 1 22.3072 0.86806 3.2715
43 1 21.4007 0.183986 3.02082
44 1 21.3769 -0.291596 3.85954
45 1 21.7117 0.557748 4.04108
46 1 21.3859 1.45434 4.42687
47 1 22.0654 2.36068 4.52051
48 1 21.2457 2.73749 3.93957
49 1 21.2703 3.02848 2.99811
50 1 20.8362 2.17308 3.22791
ITEM: TIMESTEP
17000
ITEM: NUMBER OF ATOMS
50
ITEM: BOX BOUNDS pp pp pp
-5.0000000000000000e+01 5.0000000000000000e+01
-5.0000000000000000e+01 5.0000000000000000e+01
-5.0000000000000000e+01 5.0000000000000000e+01
ITEM: ATOMS id type x y z
1 1 20.8271 -0.63644 -4.51335
2 1 21.5001 0.0122068 -4.86491
3 1 21.8983 -0.852489 -5.27001
4 1 22.6323 -1.36921 -5.05259
5 1 21.8837 -1.42774 -4.42163
6 1 22.5758 -1.5833 -3.8618
7 1 23.1755 -1.16541 -3.1019
8 1 23.5784 -1.81522 -3.60683
9 1 24.2774 -1.8546 -4.3181
10 1 24.1309 -0.838122 -4.30738
11 1 24.9454 -1.13183 -3.91286