ITEM: TIMESTEP
0
ITEM: NUMBER OF ATOMS
50
ITEM: BOX BOUNDS pp pp pp
-5.0000000000000000e+01 5.0000000000000000e+01
-5.0000000000000000e+01 5.0000000000000000e+01
-5.0000000000000000e+01 5.0000000000000000e+01
ITEM: ATOMS id type x y z
1 1 -2.33751 0 0
2 1 -1.33985 0 0
3 1 -0.344535 0 0
4 1 0.65076 0 0
5 1 1.64609 0 0
6 1 2.64144 0 0
7 1 3.63676 0 0
8 1 4.63205 0 0
9 1 5.62736 0 0
10 1 6.62267 0 0
11 1 7.61798 0 0
12 1 8.61329 0 0
13 1 9.6086 0 0
14 1 10.6039 0 0
15 1 11.5992 0 0
16 1 12.5945 0 0
17 1 13.5898 0 0
18 1 14.5852 0 0
19 1 15.5805 0 0
20 1 16.5758 0 0
21 1 17.5711 0 0
22 1 18.5664 0 0
23 1 19.5617 0 0
24 1 20.557 0 0
25 1 21.5523 0 0
26 1 22.5477 0 0
27 1 23.543 0 0
28 1 24.5383 0 0
29 1 25.5336 0 0
30 1 26.5289 0 0
31 1 27.5242 0 0
32 1 28.5195 0 0
33 1 29.5148 0 0
34 1 30.5102 0 0
35 1 31.5055 0 0
36 1 32.5008 0 0
37 1 33.4961 0 0
38 1 34.4914 0 0
39 1 35.4867 0 0
40 1 36.482 0 0
41 1 37.4773 0 0
42 1 38.4726 0 0
43 1 39.4679 0 0
44 1 40.4632 0 0
45 1 41.4586 0 0
46 1 42.4539 0 0
47 1 43.4492 0 0
48 1 44.4445 0 0
49 1 45.4398 0 0
50 1 46.4375 0 0
ITEM: TIMESTEP
1000
ITEM: NUMBER OF ATOMS
50
ITEM: BOX BOUNDS pp pp pp
-5.0000000000000000e+01 5.0000000000000000e+01
-5.0000000000000000e+01 5.0000000000000000e+01
-5.0000000000000000e+01 5.0000000000000000e+01
ITEM: ATOMS id type x y z
1 1 9.03502 1.52852 -0.336711
2 1 8.18526 1.11071 0.158327
3 1 8.68665 1.0309 1.03652
4 1 9.78956 0.904931 0.615283
5 1 9.86334 -0.200801 0.438811
6 1 9.81073 0.250796 -0.408136
7 1 10.5749 0.719945 -0.18313
8 1 10.9302 0.0754456 0.442451
9 1 11.7634 0.564817 0.369062
10 1 12.4454 0.461647 -0.36001
11 1 11.6636 1.07422 -0.577181
12 1 11.2985 0.072804 -0.579874
13 1 12.1761 -0.363856 -0.895374
14 1 13.1201 -0.285908 -0.706001
15 1 13.8073 -0.959325 -0.343688
16 1 14.8194 -0.756781 -0.173714
17 1 15.5454 -0.269674 -0.786866
18 1 16.2218 -0.0563964 -0.0833492
19 1 17.0692 -0.127481 -0.590835
20 1 17.6917 -0.698518 0.074095
21 1 18.3258 -0.745377 -0.798737
22 1 18.808 -0.532393 0.107028
23 1 19.4864 -1.02348 -0.342396
24 1 19.9868 -0.989583 0.485191
25 1 20.578 -1.0768 -0.252609
26 1 21.4971 -1.45523 0.190594
27 1 22.4103 -0.936498 -0.000821686
28 1 23.2747 -1.21539 -0.575411
29 1 24.2205 -1.38565 -1.00131
30 1 25.1564 -0.979503 -1.32035
31 1 26.0853 -1.03496 -1.01342
32 1 26.9522 -0.61975 -1.05295
33 1 27.915 -0.450275 -1.06178
34 1 28.9442 -0.232338 -1.32326
35 1 29.8257 -0.320131 -0.902562
36 1 29.1592 0.110217 -0.295041
37 1 30.0924 0.372019 0.188127
38 1 30.7618 0.32958 -0.472701
39 1 31.4117 0.748766 -0.000597764
40 1 32.2144 0.375906 -0.428075
41 1 32.812 0.724514 0.222816
42 1 33.7438 0.748976 0.494747
43 1 34.5533 0.501912 1.04739
44 1 35.3004 1.07372 0.699845
45 1 36.1532 1.19098 0.523396
46 1 36.3002 0.408071 1.11214
47 1 36.0454 0.911928 2.07082
48 1 35.3986 0.402811 1.62075
49 1 35.425 0.0599438 2.42887
50 1 35.1644 0.962013 2.54063
ITEM: TIMESTEP
2000
ITEM: NUMBER OF ATOMS
50
ITEM: BOX BOUNDS pp pp pp
-5.0000000000000000e+01 5.0000000000000000e+01
-5.0000000000000000e+01 5.0000000000000000e+01
-5.0000000000000000e+01 5.0000000000000000e+01
ITEM: ATOMS id type x y z
1 1 21.6818 1.70087 1.17275
2 1 20.8065 1.09917 1.094
3 1 20.0322 0.122619 1.08287
4 1 19.3444 -0.438861 0.323678
5 1 19.1054 0.575354 0.349669
6 1 20.1241 1.00703 0.195976
7 1 21.1029 0.637402 -0.240262
8 1 21.4154 0.945663 -1.09056
9 1 22.2665 1.28244 -1.93878
10 1 22.1223 0.241146 -1.50561
11 1 21.5687 -0.212309 -0.926076
12 1 21.0099 0.0720415 -1.52421
13 1 20.3584 0.45462 -0.908581
14 1 20.6085 -0.523969 -0.87275
15 1 20.5985 -0.707564 0.0596795
16 1 21.4145 -0.929845 0.633996
17 1 21.1279 -0.0667626 0.788676
18 1 21.8787 -0.194858 0.125862
19 1 21.8425 -1.07837 -0.314509
20 1 21.3528 -1.93268 0.0786279
21 1 20.4203 -1.64794 -0.52032
22 1 21.0935 -1.56267 -1.35073
23 1 21.3895 -0.764087 -2.07629
24 1 22.1991 -0.939631 -1.40657
25 1 22.6292 -0.550156 -2.27053
26 1 23.3406 0.0147638 -1.84813
27 1 23.4136 1.19026 -1.69836
28 1 23.6065 1.22746 -0.752253
29 1 23.2861 2.13018 -0.382354
30 1 22.5409 1.68819 -1.06108
31 1 21.979 1.2599 -0.301211
32 1 22.5578 0.719918 -0.540051
33 1 23.2948 -0.24804 -0.479851
34 1 23.1823 -1.20748 -0.475483
35 1 22.5806 -1.84729 0.365669
36 1 22.3419 -1.83491 1.11911
37 1 22.8964 -0.915216 0.603504
38 1 23.137 -0.228961 1.11507
39 1 23.8445 -0.466702 0.451442
40 1 24.1097 0.400857 0.84871
41 1 23.8617 0.0599272 1.81416
42 1 24.0796 -0.856691 1.44709
43 1 23.3639 -1.01477 1.74037
44 1 22.7098 -0.411037 2.18667
45 1 22.3065 0.412325 2.17763
46 1 22.9795 0.826009 1.6178
47 1 22.9664 0.618709 0.45878
48 1 22.4294 1.2825 0.621526
49 1 22.0738 0.72405 0.718096
50 1 22.1239 -0.11261 1.29312
ITEM: TIMESTEP
3000
ITEM: NUMBER OF ATOMS
50
ITEM: BOX BOUNDS pp pp pp
-5.0000000000000000e+01 5.0000000000000000e+01
-5.0000000000000000e+01 5.0000000000000000e+01
-5.0000000000000000e+01 5.0000000000000000e+01
ITEM: ATOMS id type x y z
1 1 20.2529 -1.02926 -2.5888
2 1 20.0685 -0.456779 -1.90884
3 1 20.4437 -0.673966 -1.1657
4 1 20.7614 -0.000202173 -1.45836
5 1 20.4928 0.4683 -0.449515
6 1 21.2752 0.674235 -0.463688
7 1 21.1319 1.10778 0.340078
8 1 21.7176 2.01874 0.0251486
9 1 22.0558 1.59156 -0.893512
10 1 22.4718 0.891824 -0.472357
11 1 22.9931 0.0482634 -1.01551
12 1 23.0711 1.05669 -1.38237
13 1 22.3278 0.642015 -1.82842
14 1 21.7893 -0.246004 -1.10519
15 1 22.521 -1.23049 -1.36869
16 1 21.6892 -1.80902 -0.80566
17 1 21.5262 -1.2432 -0.224233
18 1 22.5346 -1.29792 -0.27295
19 1 22.4231 -0.283178 -0.157916
20 1 22.7849 0.00407442 0.748666
21 1 23.2315 -0.857406 0.500529
22 1 23.704 -0.111111 -0.0762647
23 1 23.8248 0.000280319 0.74546
24 1 24.6223 0.594717 0.331241
25 1 24.7595 -0.0592984 -0.377954
26 1 25.4788 -0.576705 -0.546522
27 1 24.4155 -1.24779 -0.380834
28 1 24.6134 -0.901806 -1.32633
29 1 24.1164 -0.0435794 -1.54358
30 1 24.054 0.881955 -1.0775
31 1 23.5883 1.37195 -0.319884
32 1 23.1557 0.836443 0.236317
33 1 23.4599 0.8554 1.13761
34 1 22.4389 1.02848 1.45333
35 1 22.1357 0.0982523 1.54846
36 1 21.5913 -0.576388 1.63218
37 1 21.9613 -0.996543 0.906134
38 1 21.6204 -1.53251 1.33162
39 1 21.1531 -1.84539 0.495682
40 1 20.3194 -1.92513 0.880114
41 1 20.6907 -1.12549 1.7969
42 1 20.4065 -0.828045 0.842892
43 1 20.6533 -0.55627 -0.0656554
44 1 21.3001 0.0866575 0.520142
45 1 20.2175 0.172858 1.21964
46 1 20.5086 0.45235 2.07319
47 1 19.9995 1.13411 1.76795
48 1 20.7638 1.38676 1.37672
49 1 20.0908 1.74272 0.522052
50 1 19.2929 2.30707 0.844134
ITEM: TIMESTEP
4000
ITEM: NUMBER OF ATOMS
50
ITEM: BOX BOUNDS pp pp pp
-5.0000000000000000e+01 5.0000000000000000e+01
-5.0000000000000000e+01 5.0000000000000000e+01
-5.0000000000000000e+01 5.0000000000000000e+01
ITEM: ATOMS id type x y z
1 1 23.1877 0.513241 -1.25253
2 1 22.7664 -0.0131756 -1.58306
3 1 22.0377 0.193537 -1.04275
4 1 22.0393 0.972115 -1.45568
5 1 21.6956 1.29977 -2.30508
6 1 21.1432 1.74568 -1.44627
7 1 21.9904 1.97886 -0.878714
8 1 21.1126 1.56511 -0.321669
9 1 20.4443 1.20598 -0.32057
10 1 20.305 1.09334 0.673914
11 1 21.1051 1.66729 0.773412
12 1 21.8578 1.44166 0.329277
13 1 22.8901 1.73431 0.0255065
14 1 23.097 1.16824 0.842289
15 1 22.9502 0.533192 0.142952
16 1 22.4867 -0.303257 -0.297522
17 1 22.2576 -0.259771 0.729305
18 1 21.953 0.661624 1.01213
19 1 20.953 0.388011 1.17977
20 1 20.6858 -0.70314 1.58132
21 1 21.7182 -0.942746 1.46451
22 1 22.0112 -1.53807 0.7816
23 1 22.47 -1.28548 0.0612307
24 1 22.8861 -1.05704 0.944041
25 1 23.8131 -1.37388 1.14849
26 1 24.7046 -1.17257 1.26046
27 1 24.8492 -0.787529 0.188657
28 1 23.9596 -0.214903 0.150526
29 1 23.7805 0.107183 1.24673
30 1 22.7882 0.565613 1.65934
31 1 23.0286 -0.305215 1.97546
32 1 22.4147 -1.01502 2.462
33 1 21.5719 -0.217213 2.22877
34 1 20.4038 -0.0866058 2.27502
35 1 19.3516 -0.100677 1.93363
36 1 19.3856 -0.793201 1.15094
37 1 19.9075 -1.45351 1.83014
38 1 20.507 -1.38183 0.820632
39 1 21.1357 -1.63974 -0.0591044
40 1 21.4248 -0.644828 -0.115782
41 1 21.3805 0.351323 -0.339523
42 1 20.5113 -0.0651054 -0.331788
43 1 21.0733 -0.57117 -1.13592
44 1 21.4236 0.153295 -1.98263
45 1 22.2212 0.271868 -2.45291
46 1 22.288 -0.572635 -2.50931
47 1 22.7204 -0.689159 -3.11795
48 1 23.6314 -0.453838 -3.09488
49 1 23.5923 0.169891 -2.47113
50 1 24.5878 -0.139813 -2.35729
ITEM: TIMESTEP
5000
ITEM: NUMBER OF ATOMS
50
ITEM: BOX BOUNDS pp pp pp
-5.0000000000000000e+01 5.0000000000000000e+01
-5.0000000000000000e+01 5.0000000000000000e+01
-5.0000000000000000e+01 5.0000000000000000e+01
ITEM: ATOMS id type x y z
1 1 22.4082 2.82279 -0.23655
2 1 23.3595 2.40757 -0.16621
3 1 24.0904 2.00769 -0.629139
4 1 23.7127 2.67944 -1.09978
5 1 22.923 1.888 -1.21298
6 1 22.9368 0.833318 -1.37446
7 1 22.4011 0.637449 -2.16809
8 1 22.9309 -0.149706 -1.73484
9 1 21.9932 -0.336164 -1.54193
10 1 22.1397 0.219571 -0.643426
11 1 21.6364 -0.205437 -0.0542801
12 1 21.0464 0.610427 -0.265752
13 1 21.3876 0.49659 -1.24452
14 1 21.7802 1.45264 -1.34596
15 1 21.2244 1.72834 -0.632914
16 1 22.3113 1.75259 -0.416498
17 1 21.9502 2.15452 0.344256
18 1 21.9754 1.13162 0.451809
19 1 22.2959 0.171984 0.653632
20 1 21.8823 -0.752787 0.733972
21 1 21.6971 -1.36895 0.0529155
22 1 20.7265 -1.34011 -0.21856
23 1 20.0633 -1.23993 0.354761
24 1 20.0715 -1.86658 1.11551
25 1 20.5852 -2.41899 0.463353
26 1 20.9871 -2.90816 0.954836
27 1 21.8155 -2.13078 1.0425
28 1 21.4178 -1.6563 1.97851
29 1 21.0031 -1.09754 1.06369
30 1 20.6384 -0.314432 0.319996
31 1 19.6466 -0.424349 0.0311175
32 1 18.9359 -0.936861 -0.569654
33 1 19.5001 -1.39867 -1.2695
34 1 19.7769 -2.28017 -1.5351
35 1 20.6452 -1.94344 -0.97176
36 1 21.7716 -2.0779 -1.15081
37 1 22.5096 -1.28827 -0.806833
38 1 22.5116 -0.593043 -0.143833
39 1 23.1732 0.100947 0.141103
40 1 22.8443 0.97906 -0.0778852
41 1 23.2034 1.45939 0.527674
42 1 23.5098 2.61806 0.801289
43 1 24.3266 1.95676 1.06146
44 1 24.4617 1.13942 1.0145
45 1 23.8618 1.11071 1.75533
46 1 23.0657 1.35801 1.53167
47 1 23.2225 0.260429 1.2801
48 1 23.4964 -0.701573 1.43326
49 1 23.4527 -1.79026 1.31882
50 1 23.1934 -2.75692 1.08522
ITEM: TIMESTEP
6000
ITEM: NUMBER OF ATOMS
50
ITEM: BOX BOUNDS pp pp pp
-5.0000000000000000e+01 5.0000000000000000e+01
-5.0000000000000000e+01 5.0000000000000000e+01
-5.0000000000000000e+01 5.0000000000000000e+01
ITEM: ATOMS id type x y z
1 1 22.7058 1.69327 -1.05687
2 1 23.2738 1.20265 -0.758274
3 1 24.2634 1.01464 -0.763575
4 1 23.7982 0.838578 -1.68371
5 1 24.1015 0.00858597 -1.29436
6 1 24.5012 -0.133084 -0.395555
7 1 23.801 -0.392348 0.216187
8 1 24.4702 0.409577 0.539733
9 1 23.8037 0.921853 0.148319
10 1 22.9535 0.516732 0.18427
11 1 22.4027 -0.100451 -0.0728021
12 1 22.1719 0.758735 -0.769197
13 1 22.1009 1.30526 0.0321033
14 1 21.7664 1.65562 0.941094
15 1 21.5852 2.31211 0.600174
16 1 20.6862 2.22309 0.399854
17 1 21.2352 1.8453 -0.487903
18 1 21.0867 0.682315 -0.400842
19 1 20.7633 0.0387573 -0.968571
20 1 21.3084 -0.601586 -1.73303
21 1 21.5429 -1.22324 -1.06519
22 1 21.181 -0.7805 -0.18493
23 1 20.3353 -1.02849 -1.08452
24 1 20.7083 -1.58312 -1.86733
25 1 21.5156 -1.89911 -2.65395
26 1 22.0741 -2.09012 -1.78103
27 1 22.5445 -1.29503 -1.46178
28 1 22.2706 -0.378108 -1.12009
29 1 23.0308 -0.310829 -1.59568
30 1 23.4504 -0.840181 -0.717473
31 1 22.9196 -1.68295 -0.539767
32 1 22.8299 -1.69271 0.286838
33 1 22.841 -0.81111 0.784637
34 1 22.8331 -0.262129 1.5879
35 1 22.8848 -1.19758 2.01601
36 1 22.0107 -1.10927 2.22208
37 1 21.5955 -1.69105 2.23732
38 1 22.1367 -1.99522 1.5718
39 1 21.5479 -1.26316 1.089
40 1 21.5224 -0.51514 0.769529
41 1 22.0987 0.334258 0.860147
42 1 21.8174 0.0488053 1.6235
43 1 22.0328 0.971433 1.90545
44 1 21.2304 1.33344 2.62257
45 1 20.3806 0.765516 1.80769
46 1 20.9924 0.341534 0.984749
47 1 20.3039 0.674463 0.383158
48 1 20.1012 1.50549 -0.0186128
49 1 19.5817 1.20442 -0.531089
50 1 19.4067 0.270068 -0.808003
ITEM: TIMESTEP
7000
ITEM: NUMBER OF ATOMS
50
ITEM: BOX BOUNDS pp pp pp
-5.0000000000000000e+01 5.0000000000000000e+01
-5.0000000000000000e+01 5.0000000000000000e+01
-5.0000000000000000e+01 5.0000000000000000e+01
ITEM: ATOMS id type x y z
1 1 23.9004 0.937205 1.12669
2 1 23.1637 1.10414 0.713483
3 1 22.895 0.357878 1.41269
4 1 23.2801 0.651693 1.90236
5 1 22.6334 1.45182 1.65612
6 1 22.1047 1.5248 0.881716
7 1 21.5983 1.02866 1.55072
8 1 20.6959 1.08116 1.47235
9 1 20.3475 0.943915 2.25892
10 1 20.7899 0.135732 2.24679
11 1 21.7515 -0.0430371 1.61489
12 1 21.306 -0.101847 0.715248
13 1 21.2102 0.675972 0.254215
14 1 22.36 0.915208 -0.0610351
15 1 21.7055 1.56995 -0.142059
16 1 21.6642 1.21121 -0.965222
17 1 22.8082 1.20351 -1.1591
18 1 23.2965 0.3934 -0.585971
19 1 23.451 -0.421956 0.0131075
20 1 22.7928 -0.856583 0.512765
21 1 22.4305 -0.223002 0.459772
22 1 22.5768 -0.332121 -0.667026
23 1 22.2701 0.105481 -1.47878
24 1 23.2067 -0.0608016 -1.50188
25 1 22.739 -0.75399 -2.12408
26 1 22.6807 -1.67917 -1.32739
27 1 23.3669 -1.63251 -0.659873
28 1 23.515 -1.70862 0.185315
29 1 22.9934 -1.94795 1.10387
30 1 22.0036 -2.3636 0.765573
31 1 21.9619 -1.45684 1.37085
32 1 22.7312 -1.11306 2.09566
33 1 22.1539 -0.299283 2.62665
34 1 21.339 -0.910276 2.66216
35 1 20.8058 -0.910033 2.00245
36 1 20.8533 -1.15581 1.08788
37 1 20.8001 -0.962783 0.0917335
38 1 21.7235 -1.23306 0.332015
39 1 21.7852 -1.43881 -0.417971
40 1 21.4798 -0.664627 -1.12211
41 1 21.161 -0.0738263 -0.697301
42 1 20.4009 -0.610148 -1.05027
43 1 20.7683 -0.174388 -1.73856
44 1 21.5481 -0.146933 -2.05304
45 1 20.8476 0.809487 -1.81905
46 1 21.6727 0.855815 -2.46677
47 1 22.0571 0.914408 -3.24728
48 1 22.1734 2.00736 -3.17081
49 1 21.9145 1.93794 -2.1216
50 1 22.7852 1.45831 -2.5388
ITEM: TIMESTEP
8000
ITEM: NUMBER OF ATOMS
50
ITEM: BOX BOUNDS pp pp pp
-5.0000000000000000e+01 5.0000000000000000e+01
-5.0000000000000000e+01 5.0000000000000000e+01
-5.0000000000000000e+01 5.0000000000000000e+01
ITEM: ATOMS id type x y z
1 1 22.6626 2.47055 2.75708
2 1 22.0778 1.63667 2.78169
3 1 21.4528 0.585423 3.04225
4 1 20.4101 0.385137 2.40462
5 1 20.6498 0.762847 1.44732
6 1 20.3256 0.300748 0.53317
7 1 20.1843 0.384038 -0.391353
8 1 19.5186 0.313203 -0.995666
9 1 20.4635 -0.284202 -1.17794
10 1 21.2535 0.0475424 -0.737255
11 1 22.3301 0.471094 -0.899273
12 1 21.7972 0.514476 -1.62552
13 1 22.4449 1.43311 -1.60794
14 1 23.0846 1.35937 -1.1095
15 1 23.2806 1.63755 -0.316854
16 1 23.749 1.1436 0.668168
17 1 23.4787 0.945186 1.5991
18 1 22.8858 1.52758 1.32276
19 1 22.1525 1.00856 0.943277
20 1 21.4556 0.045344 0.944177
21 1 22.0044 -0.280909 0.230879
22 1 22.8629 0.176204 0.3222
23 1 22.4869 -0.23459 1.23494
24 1 22.4786 0.41479 1.75485
25 1 21.788 0.592504 1.99752
26 1 21.4516 -0.198064 1.97885
27 1 20.5096 -0.715905 1.89653
28 1 20.5711 -1.61173 1.49485
29 1 20.1217 -1.00821 0.909237
30 1 20.5599 -1.59168 0.0808729
31 1 20.5674 -0.811826 -0.10518
32 1 19.5222 -0.785318 -0.393353
33 1 19.7261 -1.73676 -0.327487
34 1 20.6277 -1.66629 -0.974718
35 1 21.469 -1.93683 -1.2077
36 1 21.4326 -1.27639 -0.442924
37 1 22.4425 -0.813069 -0.613004
38 1 23.2935 -0.786357 -1.36002
39 1 24.2764 -0.494372 -1.91533
40 1 23.5511 -0.775661 -2.41546
41 1 22.5936 -1.24592 -2.20077
42 1 21.6121 -0.906847 -2.25832
43 1 22.1252 -0.573333 -1.52803
44 1 22.7365 -0.0683512 -1.9729
45 1 23.4697 0.318607 -1.51139
46 1 23.5553 0.45898 -0.493956
47 1 24.2608 -0.132331 -0.26147
48 1 24.4566 0.808347 -0.00965872
49 1 25.2652 0.0413891 -0.27897
50 1 25.0245 0.152106 -1.21238
ITEM: TIMESTEP
9000
ITEM: NUMBER OF ATOMS
50
ITEM: BOX BOUNDS pp pp pp
-5.0000000000000000e+01 5.0000000000000000e+01
-5.0000000000000000e+01 5.0000000000000000e+01
-5.0000000000000000e+01 5.0000000000000000e+01
ITEM: ATOMS id type x y z
1 1 22.2738 -0.0742835 -0.853983
2 1 22.9152 0.482091 -1.77804
3 1 22.9446 0.521431 -2.909
4 1 21.9458 0.94463 -2.54333
5 1 21.963 0.150665 -2.14407
6 1 21.75 0.66466 -1.36854
7 1 22.1957 1.4725 -1.24134
8 1 22.3684 2.30942 -1.75148
9 1 21.3422 2.77624 -1.61163
10 1 21.1341 2.07083 -0.90624
11 1 20.8774 1.52663 -0.138274
12 1 21.891 1.59316 -0.215343
13 1 22.7563 0.909785 -0.464828
14 1 22.5216 1.14128 0.62101
15 1 21.8476 1.85986 0.824273
16 1 21.5623 1.00792 1.25523
17 1 21.8613 0.760995 2.05861
18 1 21.4357 0.0122745 1.75492
19 1 21.6021 -1.01433 1.94461
20 1 21.3315 -1.63155 1.4748
21 1 20.7426 -1.3223 1.19026
22 1 19.9014 -1.0213 0.871606
23 1 19.7999 -0.148367 0.165385
24 1 19.2451 0.514075 0.626359
25 1 20.3157 0.784421 1.31062
26 1 20.571 -0.112566 0.915958
27 1 20.821 -0.805594 0.0954342
28 1 21.9067 -0.457167 0.123284
29 1 21.775 0.447497 -0.0698437
30 1 21.1004 0.272376 -0.314029
31 1 21.2162 -0.413958 -0.847702
32 1 21.8305 -0.896027 -1.51709
33 1 22.9995 -0.728266 -1.52723
34 1 23.1858 -1.57387 -0.64599
35 1 22.24 -2.26 -0.824174
36 1 22.2665 -1.1304 -0.592819
37 1 22.3196 -1.36984 0.332487
38 1 22.918 -1.70694 1.14456
39 1 23.758 -1.04578 1.4584
40 1 23.1628 -0.821204 0.629442
41 1 23.7945 -1.39937 0.194096
42 1 24.2427 -0.646138 -0.459825
43 1 24.0734 0.122052 -0.240893
44 1 23.5162 0.0786232 -0.92812
45 1 23.0552 -0.385823 -0.234925
46 1 22.7493 0.134154 0.312191
47 1 22.1309 0.0943553 1.00232
48 1 22.352 -0.150796 2.20462
49 1 22.9476 -1.26755 2.12195
50 1 23.0428 -0.268511 1.49633
ITEM: TIMESTEP
10000
ITEM: NUMBER OF ATOMS
50
ITEM: BOX BOUNDS pp pp pp
-5.0000000000000000e+01 5.0000000000000000e+01
-5.0000000000000000e+01 5.0000000000000000e+01
-5.0000000000000000e+01 5.0000000000000000e+01
ITEM: ATOMS id type x y z
1 1 24.2927 -0.291035 1.03693
2 1 23.549 0.263045 1.44381
3 1 23.7897 1.12466 0.930841
4 1 24.0716 1.96947 0.417521
5 1 24.8944 1.30966 0.277983
6 1 24.2437 0.948951 -0.382712
7 1 24.1977 1.9927 -0.626144
8 1 23.2832 1.80006 -1.12868
9 1 22.4973 1.7449 -1.18079
10 1 22.2548 0.922489 -0.954154
11 1 21.9538 0.0874044 -0.936998
12 1 21.1703 0.74765 -1.17534
13 1 21.687 1.53465 -1.90596
14 1 21.4144 1.70749 -1.03193
15 1 21.8383 1.73357 -0.250689
16 1 20.7111 1.65085 -0.222533
17 1 21.0503 1.10993 0.481106
18 1 20.6572 0.500843 -0.207586
19 1 20.6763 -0.261688 -0.712206
20 1 21.1193 -0.495323 -1.38582
21 1 20.6588 0.199713 -2.11636
22 1 21.4394 0.247522 -2.30025
23 1 22.2523 -0.315877 -2.17142
24 1 22.2784 -1.22222 -1.61602
25 1 22.9024 -0.83759 -1.21861
26 1 22.7188 -1.20244 -0.386809
27 1 22.434 -0.387697 0.0385757
28 1 22.0512 0.548345 0.172244
29 1 22.7152 0.57632 0.976927
30 1 22.819 1.54624 0.781005
31 1 23.2014 0.944091 0.0959191
32 1 23.5761 0.0965604 0.306956
33 1 23.2095 -0.762774 0.996312
34 1 22.7663 -1.66677 1.01666
35 1 21.9624 -1.3017 0.667249
36 1 22.3014 -0.866338 1.44366
37 1 21.2696 -0.954838 1.60217
38 1 21.5068 -0.666452 2.49854
39 1 22.2652 -0.221666 2.86677
40 1 22.2066 0.228177 1.96291
41 1 21.3325 0.193198 1.18511
42 1 20.703 -0.529395 0.625207
43 1 21.4275 -0.7579 0.0391989
44 1 21.6154 -1.25319 -0.7909
45 1 20.6746 -1.31762 -0.378571
46 1 20.9588 -2.0728 -0.0497902
47 1 20.2565 -2.55684 0.544949
48 1 19.866 -2.69826 -0.385158
49 1 19.7321 -1.57302 0.139035
50 1 20.0466 -1.51505 0.967837
ITEM: TIMESTEP
11000
ITEM: NUMBER OF ATOMS
50
ITEM: BOX BOUNDS pp pp pp
-5.0000000000000000e+01 5.0000000000000000e+01
-5.0000000000000000e+01 5.0000000000000000e+01
-5.0000000000000000e+01 5.0000000000000000e+01
ITEM: ATOMS id type x y z
1 1 22.7131 1.63047 2.07161
2 1 23.5284 1.564 2.56714
3 1 24.5454 1.45686 2.24637
4 1 24.0954 2.10714 1.63058
5 1 23.3792 2.46481 1.6503
6 1 23.1512 2.54133 0.753712
7 1 22.5254 1.95204 1.09971
8 1 23.4677 1.63457 0.724244
9 1 23.2835 0.796572 1.46555
10 1 22.9392 0.0991839 2.05444
11 1 22.5902 0.0472316 1.02711
12 1 23.4892 0.149794 0.417822
13 1 23.8071 0.789941 -0.15146
14 1 24.3965 -0.183506 -0.868213
15 1 23.4542 0.350925 -1.05764
16 1 22.6815 0.135913 -1.41983
17 1 22.5415 -0.822477 -1.71203
18 1 22.4651 -1.60142 -1.18974
19 1 22.4006 -0.842546 -0.479205
20 1 21.5248 -1.28801 -0.39119
21 1 22.2322 -1.57346 0.312526
22 1 22.876 -0.957485 0.60164
23 1 21.8348 -0.854322 0.87091
24 1 21.7709 -0.142403 0.199927
25 1 21.8437 0.175375 -0.572008
26 1 22.6807 0.12689 -0.271212
27 1 22.7369 0.938571 -0.557221
28 1 22.5638 0.992779 0.538939
29 1 21.7795 1.10731 0.660767
30 1 21.3731 1.61889 1.409
31 1 21.9531 0.948269 1.88624
32 1 21.6359 0.121512 1.94195
33 1 20.8914 0.668515 1.60285
34 1 20.9615 -0.0609098 1.03862
35 1 20.8078 -1.14723 0.618272
36 1 20.1518 -0.852507 -0.0814525
37 1 20.4453 -0.104638 -0.233372
38 1 20.9926 -0.330516 -0.879205
39 1 21.4606 0.408433 -1.56606
40 1 21.1697 0.0866499 -2.32423
41 1 21.2134 -0.767679 -2.47994
42 1 20.4154 -0.576903 -1.86065
43 1 19.736 -0.609116 -1.08762
44 1 20.4071 -1.30334 -1.06712
45 1 20.5177 -2.03852 -0.45655
46 1 20.9477 -2.12881 -1.20307
47 1 20.0131 -2.08218 -1.65041
48 1 20.8981 -1.89745 -2.17437
49 1 21.8539 -1.59373 -2.17294
50 1 21.3568 -1.15482 -1.48349
ITEM: TIMESTEP
12000
ITEM: NUMBER OF ATOMS
50
ITEM: BOX BOUNDS pp pp pp
-5.0000000000000000e+01 5.0000000000000000e+01
-5.0000000000000000e+01 5.0000000000000000e+01
-5.0000000000000000e+01 5.0000000000000000e+01
ITEM: ATOMS id type x y z
1 1 20.155 -0.888699 -1.07811
2 1 21.0002 -0.894286 -0.55732
3 1 20.2568 -0.178309 -0.413867
4 1 21.1556 0.24453 0.127269
5 1 20.464 0.470514 0.740593
6 1 21.0107 1.26331 0.814914
7 1 20.7641 0.976582 1.86207
8 1 21.3325 1.73604 1.92178
9 1 22.0542 1.6706 1.21065
10 1 22.7411 1.21904 1.93598
11 1 22.1989 0.637861 1.34906
12 1 21.9856 -0.175324 1.60457
13 1 21.0761 -0.442557 1.08934
14 1 20.8882 -0.461525 1.88008
15 1 21.4971 -0.380715 2.74046
16 1 21.4967 0.583363 2.49892
17 1 22.4723 0.477371 3.04137
18 1 22.773 -0.514644 2.50523
19 1 21.9094 -1.18143 2.13865
20 1 22.2617 -1.58729 1.03658
21 1 22.2274 -1.10183 0.189122
22 1 22.5813 -0.483413 0.7383
23 1 22.9296 -0.471346 -0.123852
24 1 23.7053 -0.532086 0.744425
25 1 23.5672 -1.08118 1.17946
26 1 22.8854 -1.04615 1.67839
27 1 23.1361 -0.106631 1.59811
28 1 23.4888 0.608234 1.23597
29 1 23.0964 0.477065 0.400709
30 1 22.2435 0.485193 0.0616776
31 1 21.9036 -0.337791 -0.354303
32 1 22.4895 0.0510096 -1.13707
33 1 21.6657 0.185051 -1.23097
34 1 21.3804 1.24103 -1.54696
35 1 21.5302 2.28584 -1.56573
36 1 21.9797 1.89689 -0.560485
37 1 22.4735 1.13015 -1.10394
38 1 23.4643 0.617573 -1.29616
39 1 23.4972 0.631336 -2.38609
40 1 22.9445 1.14633 -2.95303
41 1 22.4342 0.768238 -2.15345
42 1 22.1274 0.128128 -2.89744
43 1 21.5512 -0.0713983 -2.20509
44 1 21.5489 -1.0023 -1.66318
45 1 20.8475 -1.74538 -1.66079
46 1 21.5853 -1.778 -2.24972
47 1 22.1458 -1.00687 -2.51303
48 1 22.8808 -0.340404 -2.07331
49 1 22.5048 -1.0559 -1.18568
50 1 22.1911 -2.06582 -1.4141
ITEM: TIMESTEP
13000
ITEM: NUMBER OF ATOMS
50
ITEM: BOX BOUNDS pp pp pp
-5.0000000000000000e+01 5.0000000000000000e+01
-5.0000000000000000e+01 5.0000000000000000e+01
-5.0000000000000000e+01 5.0000000000000000e+01
ITEM: ATOMS id type x y z
1 1 23.1202 2.07225 -0.0861021
2 1 22.7368 1.22037 -0.491804
3 1 22.4603 2.11779 -0.831559
4 1 21.7021 1.71998 -0.531479
5 1 20.715 1.49578 -0.0716475
6 1 21.0809 0.67034 -0.643455
7 1 21.6938 1.04223 -1.49857
8 1 20.8461 1.58829 -1.29623
9 1 19.8455 1.55865 -1.0259
10 1 19.9695 0.814598 -0.697712
11 1 19.9963 -0.147176 -0.347038
12 1 19.9638 -0.736945 0.298232
13 1 20.7046 -1.32188 -0.267341
14 1 21.6954 -1.62322 -0.110091
15 1 21.3738 -1.46651 -1.05201
16 1 21.5911 -2.30418 -0.897688
17 1 21.0581 -2.42067 -0.386677
18 1 21.0366 -1.95678 0.517902
19 1 21.4494 -1.33526 1.03994
20 1 21.7891 -0.560913 1.54447
21 1 21.3473 0.103045 1.11772
22 1 20.5953 0.246244 1.23084
23 1 20.8342 0.724834 2.00439
24 1 21.6603 0.628167 2.22947
25 1 22.274 0.617997 1.41433
26 1 21.6244 1.14345 1.07883
27 1 22.0737 1.93324 0.45467
28 1 22.9174 1.05299 0.695347
29 1 22.5866 0.317251 0.518639
30 1 21.8839 0.381545 0.118863
31 1 20.9146 -0.198999 0.248896
32 1 22.0011 -0.600301 0.333607
33 1 22.2651 -0.675225 -0.511648
34 1 21.5132 -0.401427 -0.75983
35 1 22.3922 0.279596 -1.02828
36 1 22.979 0.0565646 -0.412893
37 1 23.4429 -0.588104 0.302278
38 1 23.1876 0.0104571 1.21377
39 1 24.2007 0.716041 1.38024
40 1 23.9737 0.265651 0.483083
41 1 23.8649 1.076 -0.181122
42 1 24.4117 0.374249 -0.42711
43 1 23.7217 0.409308 -1.16427
44 1 23.3941 0.0763044 -2.10584
45 1 22.9369 -0.788841 -1.61398
46 1 23.2698 -0.810928 -0.854234
47 1 23.5659 -1.82942 -0.489909
48 1 22.7967 -1.58922 -0.0819044
49 1 22.7678 -1.20934 0.818308
50 1 22.2748 -2.14787 0.822485
ITEM: TIMESTEP
14000
ITEM: NUMBER OF ATOMS
50
ITEM: BOX BOUNDS pp pp pp
-5.0000000000000000e+01 5.0000000000000000e+01
-5.0000000000000000e+01 5.0000000000000000e+01
-5.0000000000000000e+01 5.0000000000000000e+01
ITEM: ATOMS id type x y z
1 1 22.1308 2.29353 0.246137
2 1 22.3614 1.33825 -0.205715
3 1 22.3484 1.34039 -1.04463
4 1 23.1629 0.960409 -0.941965
5 1 22.9043 0.331249 -0.206591
6 1 23.2328 -0.551093 0.358618
7 1 24.2313 -0.637453 -0.128675
8 1 24.0421 -1.48637 -0.421164
9 1 24.085 -1.22572 -1.46109
10 1 23.4232 -0.59409 -0.757621
11 1 23.269 0.12902 -1.54559
12 1 22.5137 -0.629238 -1.45053
13 1 22.0729 0.355259 -1.76837
14 1 21.1476 0.558927 -2.36344
15 1 20.2475 0.094244 -2.23351
16 1 21.0097 -0.609555 -2.14802
17 1 21.5019 -0.894549 -1.43684
18 1 21.3044 -1.57475 -2.23293
19 1 21.9719 -1.94694 -1.17841
20 1 21.3792 -1.5353 -0.475601
21 1 21.4427 -0.39488 -0.552214
22 1 20.9197 -0.0566232 -1.25109
23 1 20.2675 -0.410594 -1.13447
24 1 20.0258 -0.151942 -0.0715449
25 1 20.2039 0.825603 0.393277
26 1 20.8665 0.44648 0.137756
27 1 21.1187 1.39182 -0.152111
28 1 21.1546 0.909253 -0.941026
29 1 21.9721 0.42721 -0.706237
30 1 21.9338 0.477276 0.237221
31 1 21.516 -0.0737174 0.952154
32 1 21.9311 -0.865701 0.505491
33 1 22.2469 -0.839322 1.56351
34 1 22.2697 0.327408 1.52117
35 1 21.7477 0.618713 2.0565
36 1 20.887 0.111291 2.47853
37 1 20.4644 -0.301989 1.5792
38 1 20.5362 0.927292 1.69016
39 1 21.2384 1.13321 1.05366
40 1 22.2035 1.33872 0.755271
41 1 22.4913 1.87439 1.43713
42 1 22.7928 1.79706 2.38897
43 1 23.128 1.04384 1.6367
44 1 23.1951 0.381036 0.906963
45 1 23.2873 -0.154122 1.58185
46 1 24.0108 -0.55939 1.02773
47 1 23.1585 -1.23928 1.22749
48 1 22.4263 -1.87518 1.12304
49 1 22.29 -1.78034 0.312254
50 1 22.4336 -1.04373 -0.361404
ITEM: TIMESTEP
15000
ITEM: NUMBER OF ATOMS
50
ITEM: BOX BOUNDS pp pp pp
-5.0000000000000000e+01 5.0000000000000000e+01
-5.0000000000000000e+01 5.0000000000000000e+01
-5.0000000000000000e+01 5.0000000000000000e+01
ITEM: ATOMS id type x y z
1 1 23.2093 1.14777 0.110916
2 1 22.8055 1.95783 0.513896
3 1 21.8385 1.8978 0.129203
4 1 21.9007 1.12776 0.687003
5 1 21.2756 0.547682 1.24403
6 1 21.7589 -0.533573 0.76042
7 1 21.888 -0.214038 1.74154
8 1 22.6221 -0.15265 0.956318
9 1 23.1495 0.174276 1.45375
10 1 23.7371 -0.661006 1.14819
11 1 24.1786 -0.681027 0.354843
12 1 23.7949 0.205993 0.562143
13 1 24.1097 0.561273 -0.318665
14 1 23.2956 0.341266 -0.661101
15 1 22.9106 0.711391 -1.62676
16 1 22.3113 0.357008 -2.34637
17 1 23.3591 -0.0074856 -2.06277
18 1 24.1604 -0.306615 -1.48099
19 1 23.5863 -0.680921 -0.725399
20 1 23.2691 -1.11966 -1.61363
21 1 22.3445 -1.40348 -2.04272
22 1 21.604 -0.576764 -2.14704
23 1 20.7679 0.163694 -1.97914
24 1 21.5528 0.407054 -1.55232
25 1 22.4755 -0.330702 -1.5209
26 1 22.2926 0.234535 -0.810688
27 1 22.4646 0.409923 -0.0197293
28 1 22.661 -0.709837 -0.0116062
29 1 22.5336 -1.39063 -0.545194
30 1 21.7252 -0.81678 -1.05599
31 1 21.3723 -0.517986 -0.262842
32 1 20.3215 -0.72781 0.198386
33 1 20.3489 -0.184969 -0.651799
34 1 20.2105 0.906044 -0.736306
35 1 20.4945 1.10173 -1.63154
36 1 21.2791 1.21456 -2.13894
37 1 21.9824 1.54549 -1.35899
38 1 21.7646 1.16916 -0.516466
39 1 21.2505 0.516114 -0.553889
40 1 21.0764 0.36015 0.236214
41 1 20.3888 0.399183 0.926993
42 1 20.4657 0.56957 1.85071
43 1 20.3025 -0.459827 1.96381
44 1 20.3388 -1.13458 2.72782
45 1 20.7833 -0.655994 3.25972
46 1 21.3799 -0.198864 2.68482
47 1 21.6846 -1.0768 2.55042
48 1 22.6924 -0.838669 1.87391
49 1 22.0235 -1.21736 1.45557
50 1 22.7574 -1.42922 0.981169
ITEM: TIMESTEP
16000
ITEM: NUMBER OF ATOMS
50
ITEM: BOX BOUNDS pp pp pp
-5.0000000000000000e+01 5.0000000000000000e+01
-5.0000000000000000e+01 5.0000000000000000e+01
-5.0000000000000000e+01 5.0000000000000000e+01
ITEM: ATOMS id type x y z
1 1 19.8243 0.977061 0.21358
2 1 20.0672 0.04364 0.622729
3 1 20.5763 -0.236518 1.54838
4 1 21.2142 -0.244728 0.802295
5 1 22.0194 0.270124 1.04534
6 1 21.3174 0.613291 2.01346
7 1 20.857 1.33682 2.34396
8 1 21.1091 2.15844 1.98673
9 1 21.9083 1.84419 2.10385
10 1 22.1899 1.22536 1.60795
11 1 22.6409 0.38625 2.07836
12 1 22.8648 -0.433856 1.73265
13 1 23.1545 0.267656 1.19741
14 1 23.6786 0.136983 2.07176
15 1 23.7955 -0.814456 1.89737
16 1 24.679 -0.53836 1.59468
17 1 24.7431 -0.643407 0.584211
18 1 24.2074 -1.32081 0.243773
19 1 23.7273 -1.16603 0.92441
20 1 22.675 -1.75291 1.00859
21 1 22.647 -0.781383 0.710616
22 1 22.8859 -1.74679 -0.124825
23 1 23.1497 -0.723661 -0.515132
24 1 23.3971 -0.252331 0.212306
25 1 22.4903 -0.0404081 -0.0292122
26 1 22.4914 0.818193 0.273615
27 1 22.1067 1.57171 -0.140014
28 1 21.0935 1.26434 -0.558156
29 1 21.4345 0.544832 0.0765971
30 1 21.985 0.227366 -0.838505
31 1 21.2217 -0.329839 -0.760014
32 1 22.045 -0.889327 -0.436676
33 1 22.0694 -0.919181 -1.23022
34 1 22.2879 -1.12778 -2.24135
35 1 22.4324 -0.255647 -1.9864
36 1 23.499 -0.87871 -1.66089
37 1 23.5198 0.404162 -1.95868
38 1 22.6925 1.05726 -1.95102
39 1 21.9912 1.09653 -1.30686
40 1 21.5115 1.399 -2.20647
41 1 22.0114 0.659887 -2.69995
42 1 21.4275 0.328021 -1.94192
43 1 20.6962 0.484005 -1.34955
44 1 19.8201 1.00098 -0.877878
45 1 20.3766 0.341416 -0.331038
46 1 20.491 -0.588237 -0.0575401
47 1 21.1229 -1.19241 -0.0824696
48 1 21.1382 -1.80243 -0.750156
49 1 20.9944 -1.13949 -1.41672
50 1 20.2209 -0.638823 -1.44298
ITEM: TIMESTEP
17000
ITEM: NUMBER OF ATOMS
50
ITEM: BOX BOUNDS pp pp pp
-5.0000000000000000e+01 5.0000000000000000e+01
-5.0000000000000000e+01 5.0000000000000000e+01
-5.0000000000000000e+01 5.0000000000000000e+01
ITEM: ATOMS id type x y z
1 1 20.901 -1.42615 -1.93468
2 1 21.1081 -1.70471 -0.900762
3 1 20.7842 -0.938477 -0.534296
4 1 19.8942 -0.870626 -0.982276
5 1 20.1968 0.116303 -0.801502
6 1 20.683 0.840827 -0.251967
7 1 20.2127 1.11999 0.479006
8 1 19.4307 0.456973 0.845151
9 1 20.2436 -0.0383168 0.398457