ITEM: TIMESTEP
0
ITEM: NUMBER OF ATOMS
50
ITEM: BOX BOUNDS pp pp pp
-5.0000000000000000e+01 5.0000000000000000e+01
-5.0000000000000000e+01 5.0000000000000000e+01
-5.0000000000000000e+01 5.0000000000000000e+01
ITEM: ATOMS id type x y z
1 1 -2.38112 0 0
2 1 -1.38213 0 0
3 1 -0.384146 0 0
4 1 0.613742 0 0
5 1 1.61154 0 0
6 1 2.60925 0 0
7 1 3.60687 0 0
8 1 4.60439 0 0
9 1 5.60183 0 0
10 1 6.59917 0 0
11 1 7.59643 0 0
12 1 8.59359 0 0
13 1 9.59067 0 0
14 1 10.5876 0 0
15 1 11.5845 0 0
16 1 12.5813 0 0
17 1 13.5781 0 0
18 1 14.5747 0 0
19 1 15.5712 0 0
20 1 16.5677 0 0
21 1 17.5639 0 0
22 1 18.5609 0 0
23 1 19.5577 0 0
24 1 20.5547 0 0
25 1 21.5516 0 0
26 1 22.5484 0 0
27 1 23.5453 0 0
28 1 24.5423 0 0
29 1 25.5391 0 0
30 1 26.5361 0 0
31 1 27.5323 0 0
32 1 28.5288 0 0
33 1 29.5253 0 0
34 1 30.5219 0 0
35 1 31.5187 0 0
36 1 32.5155 0 0
37 1 33.5124 0 0
38 1 34.5093 0 0
39 1 35.5064 0 0
40 1 36.5036 0 0
41 1 37.5008 0 0
42 1 38.4982 0 0
43 1 39.4956 0 0
44 1 40.4931 0 0
45 1 41.4908 0 0
46 1 42.4885 0 0
47 1 43.4863 0 0
48 1 44.4841 0 0
49 1 45.4821 0 0
50 1 46.4811 0 0
ITEM: TIMESTEP
1000
ITEM: NUMBER OF ATOMS
50
ITEM: BOX BOUNDS pp pp pp
-5.0000000000000000e+01 5.0000000000000000e+01
-5.0000000000000000e+01 5.0000000000000000e+01
-5.0000000000000000e+01 5.0000000000000000e+01
ITEM: ATOMS id type x y z
1 1 8.63208 0.170917 0.534531
2 1 7.89704 0.443244 0.0127548
3 1 7.87899 1.26524 0.801429
4 1 8.19694 2.11493 0.949692
5 1 8.88552 1.8247 0.399249
6 1 8.54404 1.30938 -0.318786
7 1 9.39213 0.864404 -0.0918527
8 1 9.32443 -0.168721 -0.224295
9 1 9.64206 0.123361 0.771327
10 1 10.2667 0.18924 -0.0338941
11 1 11.1183 0.630584 -0.350057
12 1 11.9063 0.0765192 -0.687041
13 1 12.8072 -0.035785 -1.04095
14 1 13.3864 -0.794352 -1.11392
15 1 14.3152 -0.763701 -0.838319
16 1 14.9481 -0.30061 -0.545505
17 1 15.7746 -0.539969 -0.916551
18 1 16.6374 -0.789477 -0.448374
19 1 17.6586 -0.591613 -0.520273
20 1 18.323 -0.135567 -0.00740305
21 1 18.936 -0.484634 -0.641999
22 1 19.1689 -0.57579 0.332036
23 1 19.6791 -1.33726 -0.109571
24 1 20.135 -1.00549 0.784246
25 1 20.9803 -1.59381 0.659051
26 1 21.6172 -1.35723 -0.169306
27 1 22.6117 -1.64266 -0.23289
28 1 23.4847 -1.25565 -0.583451
29 1 24.1844 -1.70919 -1.102
30 1 24.9225 -1.12896 -1.33676
31 1 25.9323 -1.20169 -1.2336
32 1 26.9404 -0.92733 -1.36404
33 1 27.839 -0.621942 -1.36574
34 1 28.7294 -0.198765 -1.18141
35 1 29.5893 0.0861879 -0.7311
36 1 30.0865 0.931737 -0.44851
37 1 30.5765 0.575517 0.33682
38 1 31.0113 0.0951234 -0.379373
39 1 31.3508 0.962264 -0.697517
40 1 32.184 0.659897 -0.317559
41 1 33.1764 0.528447 -0.0492949
42 1 34.0723 0.833393 0.092677
43 1 34.8822 0.618745 0.729644
44 1 34.8083 1.61749 0.518791
45 1 35.6802 1.27882 0.808296
46 1 36.4512 0.805685 1.09878
47 1 36.6904 0.133053 1.78921
48 1 37.4406 0.289309 2.38207
49 1 36.6897 0.734397 2.69728
50 1 37.1145 -0.00239889 3.38346
ITEM: TIMESTEP
2000
ITEM: NUMBER OF ATOMS
50
ITEM: BOX BOUNDS pp pp pp
-5.0000000000000000e+01 5.0000000000000000e+01
-5.0000000000000000e+01 5.0000000000000000e+01
-5.0000000000000000e+01 5.0000000000000000e+01
ITEM: ATOMS id type x y z
1 1 20.7502 1.02097 0.218299
2 1 20.2472 1.86215 0.390137
3 1 19.2604 1.6577 0.548612
4 1 18.3019 1.6087 0.0732971
5 1 18.7502 1.22788 -0.842364
6 1 19.2148 0.923316 -0.0968995
7 1 18.6803 0.578017 0.676523
8 1 17.7111 0.140678 0.577789
9 1 17.7921 0.787047 -0.131714
10 1 18.1129 0.00793878 -0.893671
11 1 17.4279 -0.549466 -0.423344
12 1 18.3271 -1.0079 -0.320406
13 1 18.8747 -0.209438 -0.0465016
14 1 19.4388 -0.143084 -0.965514
15 1 18.7701 -0.864711 -1.30804
16 1 19.7309 -1.10147 -1.40186
17 1 19.7268 -0.926963 -0.375803
18 1 19.9085 0.0649447 0.089675
19 1 20.7757 -0.0396877 -0.206113
20 1 20.4747 -0.845842 0.334901
21 1 21.3284 -0.900289 -0.288382
22 1 20.9701 -0.604567 -1.19524
23 1 21.9192 -0.536117 -1.285
24 1 22.0236 -1.49075 -0.885766
25 1 22.5142 -1.26413 -1.79591
26 1 23.3344 -0.801622 -2.02341
27 1 23.1782 0.117657 -1.65044
28 1 23.026 -0.594848 -0.953104
29 1 23.9703 -0.935474 -1.17925
30 1 23.277 -1.71821 -1.04509
31 1 23.0284 -1.84985 -0.0381964
32 1 23.6832 -0.843771 -0.164659
33 1 23.8115 0.206453 -0.470247
34 1 24.6474 -0.380286 -0.522074
35 1 25.4145 0.352056 -0.671095
36 1 25.7321 0.189184 -1.56208
37 1 25.3846 -0.662028 -1.38089
38 1 24.9892 -1.4053 -0.857612
39 1 24.8506 -1.18881 0.128149
40 1 24.2681 -0.225073 0.481622
41 1 24.0606 0.729857 0.688748
42 1 24.413 0.181967 1.47575
43 1 24.7628 0.287617 2.34362
44 1 24.4157 0.871006 3.02004
45 1 25.4448 0.790238 2.9719
46 1 25.6076 0.742273 1.93158
47 1 26.0047 1.64343 2.12315
48 1 25.1945 1.80312 2.73413
49 1 24.3717 2.04984 2.32362
50 1 24.5975 1.24565 1.84914
ITEM: TIMESTEP
3000
ITEM: NUMBER OF ATOMS
50
ITEM: BOX BOUNDS pp pp pp
-5.0000000000000000e+01 5.0000000000000000e+01
-5.0000000000000000e+01 5.0000000000000000e+01
-5.0000000000000000e+01 5.0000000000000000e+01
ITEM: ATOMS id type x y z
1 1 26.877 -0.0333421 0.874829
2 1 26.5578 0.868384 0.54522
3 1 25.7313 1.21677 0.543022
4 1 25.5069 0.600536 -0.172687
5 1 24.5958 0.891129 -0.0321557
6 1 23.5881 1.08527 -0.421975
7 1 22.6596 0.913948 -0.271724
8 1 22.8198 -0.0354739 0.0683943
9 1 22.1029 -0.206077 -0.719798
10 1 21.4691 -0.0896907 0.0473944
11 1 21.5162 0.951747 0.273066
12 1 20.9431 1.55649 -0.111933
13 1 21.6301 1.78922 -0.786444
14 1 21.304 0.826955 -1.0119
15 1 20.7497 1.62223 -1.20664
16 1 20.3596 0.682334 -1.38356
17 1 20.6193 -0.0707602 -0.703071
18 1 21.2684 -0.97177 -0.775158
19 1 20.962 -1.37073 -1.64388
20 1 20.1438 -1.50404 -2.20215
21 1 20.4117 -0.493162 -2.4515
22 1 21.2256 0.283672 -2.46705
23 1 21.1121 -0.0363258 -1.58476
24 1 21.907 -0.55129 -1.64991
25 1 22.9231 -0.461109 -1.52164
26 1 23.4186 0.130069 -0.768153
27 1 24.5383 0.0525458 -0.61408
28 1 24.9069 -0.332991 0.192025
29 1 25.062 -1.03668 0.918448
30 1 24.6862 -0.82247 1.74673
31 1 24.3177 -0.13579 1.06653
32 1 24.0663 0.678042 1.12753
33 1 24.2644 0.652247 2.03595
34 1 23.2382 0.440565 2.14556
35 1 22.3375 0.266929 2.20005
36 1 21.6917 -0.526985 2.41711
37 1 21.8872 -0.963381 1.55976
38 1 21.9558 -0.195273 0.914306
39 1 21.3801 0.239765 1.33706
40 1 20.6557 -0.00367357 0.721975
41 1 19.8922 0.780425 0.88421
42 1 19.4148 -0.0118106 1.50392
43 1 19.713 -0.712361 0.950905
44 1 18.8029 -0.817125 0.53611
45 1 19.1215 -1.66907 0.302783
46 1 19.7299 -2.13717 -0.430037
47 1 19.7747 -1.3177 -1.09602
48 1 19.34 -0.561973 -0.805332
49 1 19.7264 -0.237213 0.11109
50 1 19.594 0.77616 -0.192426
ITEM: TIMESTEP
4000
ITEM: NUMBER OF ATOMS
50
ITEM: BOX BOUNDS pp pp pp
-5.0000000000000000e+01 5.0000000000000000e+01
-5.0000000000000000e+01 5.0000000000000000e+01
-5.0000000000000000e+01 5.0000000000000000e+01
ITEM: ATOMS id type x y z
1 1 23.6797 -0.857302 0.910698
2 1 24.6019 -0.549983 0.716686
3 1 24.6267 0.217277 1.3778
4 1 23.7268 -0.161817 1.662
5 1 23.1168 0.377563 1.13645
6 1 21.9903 0.237785 1.49166
7 1 21.6937 -0.525963 1.19321
8 1 22.48 -0.469718 0.634785
9 1 21.7322 -0.680662 -0.0126054
10 1 22.3468 -0.236324 -0.596426
11 1 22.228 0.459785 0.101303
12 1 21.3937 1.01963 0.609076
13 1 21.7198 1.52811 -0.163418
14 1 22.4272 2.18665 -0.00276243
15 1 22.4798 2.61914 -0.993387
16 1 22.1034 3.06406 -1.91707
17 1 21.6607 2.19482 -1.46174
18 1 22.1442 1.55586 -2.14856
19 1 22.8266 1.68792 -1.52659
20 1 22.8006 1.3536 -0.50159
21 1 23.1751 0.871373 0.266061
22 1 23.5396 -0.0500332 0.0624271
23 1 23.9264 -0.201937 -0.682958
24 1 23.7092 -1.01665 -0.168976
25 1 23.0001 -1.43928 0.372748
26 1 23.0957 -1.65393 1.32922
27 1 22.0559 -1.47786 1.45789
28 1 21.6828 -1.37881 2.45587
29 1 20.9352 -0.587772 2.36942
30 1 20.9856 0.507302 2.34855
31 1 20.508 1.3353 2.26675
32 1 19.7697 0.923166 1.74645
33 1 19.7631 0.449697 0.901833
34 1 19.9144 0.431257 -0.0894744
35 1 20.7897 0.172432 0.316235
36 1 20.9137 0.598913 -0.520306
37 1 21.9811 0.793456 -0.919852
38 1 22.5321 0.721284 -1.50505
39 1 21.9524 -0.0604405 -1.72725
40 1 21.1513 0.46572 -1.47652
41 1 20.9716 -0.414592 -1.03181
42 1 20.017 -0.7668 -1.03566
43 1 20.6685 -0.950676 -0.161598
44 1 21.2363 -1.36379 -0.906953
45 1 21.5369 -1.05738 -1.75587
46 1 21.5358 -2.10642 -1.74274
47 1 22.3764 -1.84953 -1.31925
48 1 22.1799 -1.24146 -0.685408
49 1 22.2225 -1.95613 -0.189573
50 1 22.5954 -2.71684 -0.483731
ITEM: TIMESTEP
5000
ITEM: NUMBER OF ATOMS
50
ITEM: BOX BOUNDS pp pp pp
-5.0000000000000000e+01 5.0000000000000000e+01
-5.0000000000000000e+01 5.0000000000000000e+01
-5.0000000000000000e+01 5.0000000000000000e+01
ITEM: ATOMS id type x y z
1 1 19.2139 1.38157 2.05259
2 1 20.0148 1.31516 1.48757
3 1 20.5401 0.802767 1.13608
4 1 20.3864 0.246251 0.355038
5 1 21.0833 1.05309 0.351455
6 1 21.2393 0.722888 -0.69392
7 1 22.1382 0.773972 -0.203538
8 1 22.7858 0.132449 0.347782
9 1 21.9 -0.170993 -0.0768141
10 1 22.1284 -0.738506 -0.838326
11 1 22.9763 -0.267863 -0.695911
12 1 23.2842 0.740404 -0.507596
13 1 23.3528 1.82158 -0.294855
14 1 23.6562 1.91762 0.647589
15 1 22.5337 1.83758 0.875174
16 1 21.9827 1.52336 1.70587
17 1 22.6895 0.865562 1.95556
18 1 22.774 -0.109328 2.42077
19 1 22.736 -0.797527 3.13969
20 1 23.0575 -1.24765 2.37937
21 1 23.8782 -0.789457 2.05225
22 1 23.3842 0.0680698 1.5579
23 1 22.336 -0.158861 1.37383
24 1 21.3824 0.271314 1.19111
25 1 21.444 -0.635311 1.49486
26 1 20.5258 -0.370689 1.33201
27 1 20.3857 -1.13107 0.609624
28 1 21.3365 -1.16025 0.272109
29 1 20.8295 -0.564199 -0.407699
30 1 20.5483 -0.133693 -1.17466
31 1 20.5 0.777566 -1.54082
32 1 19.6154 0.258945 -1.66722
33 1 20.118 0.456252 -2.62504
34 1 20.2187 -0.583518 -2.37403
35 1 19.8013 -1.06809 -1.54391
36 1 20.7602 -1.03936 -1.60439
37 1 21.4021 -0.405025 -1.68359
38 1 22.2451 -0.868983 -2.06043
39 1 22.5174 0.127072 -1.68851
40 1 23.4259 0.629033 -2.03462
41 1 24.1055 0.428558 -2.70681
42 1 24.053 -0.379634 -2.13291
43 1 24.5093 0.293789 -1.14109
44 1 24.735 0.727578 -0.360353
45 1 24.2342 -0.169096 -0.232391
46 1 23.3497 -0.763501 0.0938686
47 1 23.3858 -1.69462 -0.233446
48 1 22.3685 -1.70522 -0.275069
49 1 22.3363 -0.988204 0.484742
50 1 22.2954 -1.23177 1.48112
ITEM: TIMESTEP
6000
ITEM: NUMBER OF ATOMS
50
ITEM: BOX BOUNDS pp pp pp
-5.0000000000000000e+01 5.0000000000000000e+01
-5.0000000000000000e+01 5.0000000000000000e+01
-5.0000000000000000e+01 5.0000000000000000e+01
ITEM: ATOMS id type x y z
1 1 23.3318 1.22677 -3.93113
2 1 22.5362 1.96449 -4.18244
3 1 22.1489 1.12453 -3.99496
4 1 21.586 0.368865 -3.70322
5 1 21.5744 -0.0259222 -2.73988
6 1 21.2595 0.68 -2.09629
7 1 21.6197 -0.193046 -1.64329
8 1 21.2259 0.463348 -0.963166
9 1 21.2096 1.40942 -0.786173
10 1 20.7638 1.43967 0.183756
11 1 21.4412 1.05621 0.765973
12 1 21.3552 -0.0385772 0.958645
13 1 21.8044 0.285878 1.88266
14 1 21.2304 -0.399128 2.36105
15 1 20.5475 -0.0580949 1.79088
16 1 20.567 0.661576 2.38674
17 1 20.719 0.219609 3.08255
18 1 20.2352 -0.425088 3.62837
19 1 20.9282 -1.1039 3.13198
20 1 19.8189 -1.3739 3.17276
21 1 20.4014 -1.35781 2.17769
22 1 20.7958 -0.888114 1.26223
23 1 21.611 -1.35026 1.6989
24 1 21.3719 -1.69865 0.737452
25 1 21.1474 -1.1612 -0.0898281
26 1 20.7713 -0.620457 -0.824958
27 1 21.6067 -0.387912 -0.42685
28 1 21.1015 0.264476 -0.0192143
29 1 22.0233 0.638991 -0.0522781
30 1 22.9167 0.852065 -0.434889
31 1 22.5581 0.00386772 -0.864338
32 1 23.4237 0.449029 -1.182
33 1 22.5049 0.64724 -1.58809
34 1 22.2063 1.60384 -1.68878
35 1 23.0942 1.49899 -1.96458
36 1 23.5293 0.66318 -2.29347
37 1 23.8284 -0.325641 -2.24992
38 1 24.2069 -0.180469 -1.3879
39 1 24.4049 0.439265 -0.597439
40 1 23.7584 0.584199 0.122631
41 1 23.5978 1.17438 1.00721
42 1 23.6734 0.407429 1.57855
43 1 22.7897 0.446802 1.08626
44 1 22.8818 -0.084922 0.126636
45 1 22.1902 -0.604972 0.561943
46 1 22.5142 -0.623881 1.50191
47 1 23.3239 -0.705915 0.995601
48 1 23.157 -1.7685 0.839316
49 1 22.6671 -2.21325 1.67501
50 1 22.5402 -2.9845 0.988407
ITEM: TIMESTEP
7000
ITEM: NUMBER OF ATOMS
50
ITEM: BOX BOUNDS pp pp pp
-5.0000000000000000e+01 5.0000000000000000e+01
-5.0000000000000000e+01 5.0000000000000000e+01
-5.0000000000000000e+01 5.0000000000000000e+01
ITEM: ATOMS id type x y z
1 1 24.9682 -0.906695 -1.60824
2 1 25.733 -0.405689 -1.6971
3 1 25.4731 -0.400429 -0.601595
4 1 24.485 -0.635549 -0.00548252
5 1 23.8713 0.16639 -0.209316
6 1 23.68 -0.484221 -0.945872
7 1 22.9091 -0.649772 -1.39609
8 1 22.6859 0.250996 -1.79703
9 1 22.1023 0.426221 -2.65074
10 1 21.2576 -0.167741 -2.81644
11 1 21.8563 -0.512011 -2.02556
12 1 20.889 -0.76696 -1.66145
13 1 20.5775 0.12221 -1.96842
14 1 19.9611 -0.0475111 -1.3579
15 1 19.9311 -0.246812 -0.54171
16 1 19.3852 0.518856 -0.170227
17 1 18.8851 -0.231021 -0.177836
18 1 17.9338 -0.345552 0.069569
19 1 18.4953 -1.29792 0.00141488
20 1 19.3869 -1.27138 -0.56753
21 1 20.2356 -1.3364 0.098186
22 1 19.6904 -0.817858 0.557738
23 1 20.0947 -0.131451 0.792788
24 1 20.8718 -0.840931 0.736427
25 1 21.223 0.23107 1.21412
26 1 21.7023 -0.0945407 0.276248
27 1 21.1562 -0.464847 -0.494003
28 1 21.3255 0.612737 -0.55868
29 1 21.579 0.661493 -1.65107
30 1 21.9682 1.24765 -0.98732
31 1 22.5479 0.976469 -0.221631
32 1 23.2176 0.82561 -0.855273
33 1 23.025 1.92426 -0.819398
34 1 23.7319 1.45048 -0.158784
35 1 22.9821 1.65697 0.477746
36 1 22.0231 1.88645 0.469735
37 1 21.2387 1.22299 0.51232
38 1 22.1851 0.787746 0.881579
39 1 22.7921 1.40807 1.42966
40 1 23.5364 1.71031 1.98649
41 1 23.7027 0.87989 1.3676
42 1 23.5232 0.0721769 0.962481
43 1 23.8923 -0.319806 1.88332
44 1 23.4451 -0.97975 1.58767
45 1 23.2849 -1.12343 2.47342
46 1 23.0549 -0.222685 2.73712
47 1 22.7779 0.220389 1.998
48 1 22.1702 -0.489709 1.60655
49 1 22.5623 -1.56871 1.72862
50 1 22.4931 -2.50006 2.09587
ITEM: TIMESTEP
8000
ITEM: NUMBER OF ATOMS
50
ITEM: BOX BOUNDS pp pp pp
-5.0000000000000000e+01 5.0000000000000000e+01
-5.0000000000000000e+01 5.0000000000000000e+01
-5.0000000000000000e+01 5.0000000000000000e+01
ITEM: ATOMS id type x y z
1 1 22.7378 -1.78691 1.91115
2 1 22.9999 -0.899157 1.55622
3 1 22.2607 -0.777009 2.05376
4 1 22.6536 0.0620035 1.79344
5 1 23.2027 -0.00178081 0.777832
6 1 23.306 -0.478071 -0.115889
7 1 24.0101 -0.0758326 -0.660745
8 1 24.4853 -0.85371 -0.41693
9 1 24.1788 -1.51841 -0.975469
10 1 23.3573 -0.920276 -1.14786
11 1 22.3552 -0.982662 -1.1736
12 1 22.6964 -0.754473 -2.09303
13 1 22.6539 -1.02655 -2.95954
14 1 22.8722 -1.78759 -2.22352
15 1 22.0832 -1.67634 -1.80402
16 1 21.476 -1.37576 -2.40441
17 1 21.6677 -0.603629 -3.10204
18 1 20.7258 -1.04127 -3.20695
19 1 19.8122 -0.954552 -3.48776
20 1 19.6385 -1.37039 -2.69404
21 1 19.8598 -0.314598 -2.61309
22 1 20.7281 0.0119754 -2.6172
23 1 20.6164 0.314005 -1.60401
24 1 21.2368 0.849841 -1.83647
25 1 21.5917 -0.0399049 -1.8423
26 1 22.3809 0.805957 -1.99676
27 1 22.6109 0.111768 -1.17325
28 1 22.128 0.970945 -0.847177
29 1 21.8301 0.890926 0.0259972
30 1 22.7198 1.3226 0.0694624
31 1 22.1524 2.13749 0.160664
32 1 22.6026 3.00404 0.752969
33 1 22.3952 2.27856 1.30881
34 1 21.616 1.4279 0.883485
35 1 22.4539 0.849416 1.09856
36 1 21.795 0.550476 1.73951
37 1 20.7065 0.639793 2.09169
38 1 20.408 0.998165 3.0503
39 1 21.0512 1.73881 2.67418
40 1 21.9473 1.70415 2.59817
41 1 22.4391 0.957754 2.39536
42 1 23.3573 0.596434 2.30093
43 1 23.0533 -0.402646 2.77766
44 1 22.5318 -1.04502 3.49147
45 1 21.901 -0.188445 3.25146
46 1 21.3758 -0.365606 2.4299
47 1 21.1685 -0.479038 1.4016
48 1 21.0798 -0.123521 0.570345
49 1 22.015 -0.225245 0.328404
50 1 21.5744 -0.154614 -0.497288
ITEM: TIMESTEP
9000
ITEM: NUMBER OF ATOMS
50
ITEM: BOX BOUNDS pp pp pp
-5.0000000000000000e+01 5.0000000000000000e+01
-5.0000000000000000e+01 5.0000000000000000e+01
-5.0000000000000000e+01 5.0000000000000000e+01
ITEM: ATOMS id type x y z
1 1 20.805 -1.22139 1.77575
2 1 21.7614 -1.4672 1.54867
3 1 21.6483 -0.583891 1.00448
4 1 21.7623 0.417674 1.29965
5 1 22.302 0.0254277 0.488071
6 1 22.5798 1.02507 1.01598
7 1 22.6662 0.494125 1.87384
8 1 23.6247 0.311866 2.07699
9 1 23.1672 -0.636841 2.06783
10 1 23.2727 0.00871706 1.11203
11 1 23.6651 -0.799048 0.623193
12 1 22.6662 -0.949288 0.472257
13 1 23.0455 -1.84374 -0.00743364
14 1 23.1472 -0.87834 -0.47721
15 1 22.8825 -0.859131 -1.48385
16 1 22.9671 0.0105796 -2.00285
17 1 23.7049 0.0652252 -2.52075
18 1 24.584 0.762686 -2.64866
19 1 24.6312 -0.146876 -2.96874
20 1 24.1778 -0.81693 -2.46399
21 1 24.311 -0.739509 -1.41361
22 1 24.1904 -0.453139 -0.401477
23 1 23.8386 0.263674 0.249098
24 1 22.9568 0.259646 -0.26509
25 1 22.5176 0.715242 -0.730548
26 1 23.3516 0.861647 -1.27221
27 1 23.8258 0.178682 -1.20522
28 1 24.363 0.717867 -0.549633
29 1 24.1629 1.31512 0.299716
30 1 23.6749 2.04779 0.335834
31 1 23.5736 2.20181 -0.682645
32 1 22.55 1.79232 -0.138348
33 1 21.5801 1.3934 -0.0136059
34 1 20.5275 1.28845 -0.298025
35 1 19.9405 1.29225 0.464942
36 1 19.2209 0.855608 -0.217499
37 1 18.4824 0.184003 -0.564112
38 1 18.3323 0.464141 0.474082
39 1 18.9396 -0.0378073 0.602684
40 1 18.4366 -0.877148 0.604097
41 1 18.7683 -0.652795 1.5783
42 1 19.8611 -0.270898 1.66671
43 1 20.6655 -0.209934 1.02543
44 1 20.495 0.195427 0.120868
45 1 19.8746 -0.429452 0.270015
46 1 20.065 -1.29911 0.532595
47 1 20.1303 -1.6064 -0.383623
48 1 20.881 -1.03478 -0.209177
49 1 21.8486 -1.11967 -0.210183
50 1 22.0736 -0.21515 -0.454604
ITEM: TIMESTEP
10000
ITEM: NUMBER OF ATOMS
50
ITEM: BOX BOUNDS pp pp pp
-5.0000000000000000e+01 5.0000000000000000e+01
-5.0000000000000000e+01 5.0000000000000000e+01
-5.0000000000000000e+01 5.0000000000000000e+01
ITEM: ATOMS id type x y z
1 1 20.5562 -0.0245659 -1.13853
2 1 19.8384 -0.33014 -0.616394
3 1 20.6579 -1.06734 -0.635622
4 1 21.3677 -1.29819 0.127721
5 1 21.2291 -0.419156 0.500862
6 1 21.9844 -0.141083 -0.0927664
7 1 22.8778 -0.121818 -0.365116
8 1 23.5142 0.718572 -0.282224
9 1 24.1869 0.74641 0.538631
10 1 23.6845 -0.105588 0.459197
11 1 23.4325 -1.08962 0.394791
12 1 23.103 -2.21549 0.48135
13 1 23.7685 -2.86763 1.09089
14 1 24.6461 -2.61278 0.679935
15 1 25.3982 -3.06073 1.04625
16 1 25.5745 -2.41199 1.60143
17 1 25.2214 -1.58364 1.50529
18 1 24.3303 -1.54364 0.990037
19 1 24.358 -0.538902 1.34132
20 1 23.3206 -0.359112 1.57449
21 1 22.3656 -0.413132 1.42681
22 1 22.571 0.253514 0.843391
23 1 22.4165 1.02821 1.6582
24 1 22.9184 0.659055 2.48359
25 1 23.4144 1.59168 2.49253
26 1 23.4125 1.9641 1.64204
27 1 23.3257 0.956364 1.26254
28 1 23.0907 1.75576 0.665425
29 1 22.2809 1.65723 0.247958
30 1 21.7174 1.42073 1.1164
31 1 21.3644 0.825517 0.408473
32 1 21.3312 1.00155 -0.416354
33 1 20.6282 1.28744 -1.15589
34 1 19.8404 0.838387 -1.5766
35 1 19.4499 1.50128 -1.06243
36 1 18.8269 1.54083 -0.386083
37 1 19.5283 0.735632 -0.179337
38 1 19.0868 0.390048 -1.04213
39 1 18.7416 0.6039 -2.01505
40 1 19.1983 -0.276266 -1.86875
41 1 19.7647 -0.861385 -2.23504
42 1 20.271 -0.149787 -2.08706
43 1 20.8249 0.709233 -2.21739
44 1 20.8716 1.69854 -1.94753
45 1 21.729 1.3442 -1.53692
46 1 22.3449 0.836841 -0.927988
47 1 21.8337 0.22136 -1.63908
48 1 21.5213 -0.693495 -1.12715
49 1 22.3813 -1.03894 -0.47658
50 1 22.398 -1.06196 0.448449
ITEM: TIMESTEP
11000
ITEM: NUMBER OF ATOMS
50
ITEM: BOX BOUNDS pp pp pp
-5.0000000000000000e+01 5.0000000000000000e+01
-5.0000000000000000e+01 5.0000000000000000e+01
-5.0000000000000000e+01 5.0000000000000000e+01
ITEM: ATOMS id type x y z
1 1 20.9135 -0.612286 0.0196915
2 1 21.9182 -0.22521 -0.0185393
3 1 22.3803 -1.08873 -0.139585
4 1 23.1118 -0.574819 0.0418651
5 1 22.7353 -0.65915 0.862631
6 1 23.4611 -1.45864 0.975074
7 1 23.3964 -1.67452 1.90183
8 1 23.0175 -0.751419 1.97769
9 1 22.3694 -0.396583 2.6324
10 1 22.76 0.291697 3.36647
11 1 23.5042 0.0467021 2.697
12 1 23.3789 -0.721621 3.36031
13 1 23.9393 -0.948193 3.86197
14 1 23.6294 -1.75956 3.31035
15 1 23.4237 -2.45884 3.77411
16 1 22.9079 -1.90151 4.36496
17 1 22.6018 -1.46864 3.54437
18 1 21.9908 -0.854371 3.59768
19 1 21.0135 -0.586381 3.41241
20 1 21.3571 -0.85459 2.50199
21 1 20.8584 -1.87634 2.27013
22 1 21.8152 -2.09776 2.56481
23 1 22.1527 -1.39909 2.07909
24 1 21.4032 -1.27014 1.60055
25 1 21.8375 -0.496352 1.48169
26 1 21.686 0.373116 0.990953
27 1 21.1012 1.12393 0.912065
28 1 21.2616 0.553962 -0.0752743
29 1 20.3437 1.11256 -0.17737
30 1 19.7601 0.352837 -0.303973
31 1 20.0687 0.519684 -1.20832
32 1 20.121 -0.230192 -1.87665
33 1 20.5778 -0.661037 -1.22555
34 1 21.0978 0.140877 -1.12037
35 1 20.9792 0.462747 -1.9414
36 1 20.7011 1.24298 -1.70441
37 1 20.4572 1.82632 -2.40423
38 1 21.0256 1.97467 -3.23759
39 1 21.7635 1.37171 -3.44459
40 1 21.6065 0.363897 -3.08627
41 1 21.942 1.02325 -2.47583
42 1 22.7636 1.49377 -1.92236
43 1 22.0636 2.13446 -2.48236
44 1 22.4792 2.33547 -3.37133
45 1 22.1462 2.02412 -4.18451
46 1 23.1392 2.09607 -4.414
47 1 23.4867 1.5534 -5.22313
48 1 23.644 0.781046 -4.68389
49 1 22.9362 0.595773 -3.93767
50 1 23.471 1.23091 -3.44289
ITEM: TIMESTEP
12000
ITEM: NUMBER OF ATOMS
50
ITEM: BOX BOUNDS pp pp pp
-5.0000000000000000e+01 5.0000000000000000e+01
-5.0000000000000000e+01 5.0000000000000000e+01
-5.0000000000000000e+01 5.0000000000000000e+01
ITEM: ATOMS id type x y z
1 1 22.6287 -0.489483 0.471813
2 1 22.7311 0.434628 -0.143282
3 1 21.8465 0.802616 0.354751
4 1 22.6438 0.664964 0.918564
5 1 22.3445 0.715436 1.96883
6 1 21.9543 0.494434 2.93778
7 1 20.9726 0.918083 2.82931
8 1 20.7775 0.156729 2.89721
9 1 20.6508 0.409298 2.08593
10 1 20.3462 -0.609454 2.19038
11 1 21.0689 -0.840803 2.9916
12 1 20.551 -0.755391 3.76297
13 1 19.6906 -0.681362 3.15321
14 1 18.6677 -0.470611 3.45224
15 1 18.4133 -1.13038 3.08371
16 1 19.2674 -1.42655 2.45443
17 1 20.0996 -1.57816 2.8468
18 1 20.831 -1.72409 2.00698
19 1 21.4315 -1.1531 1.66942
20 1 22.1724 -1.33809 1.12103
21 1 23.0712 -1.03236 1.32117
22 1 22.4224 -0.51827 1.85726
23 1 21.5923 0.00679383 2.05149
24 1 21.6582 -0.0987477 0.953301
25 1 20.7592 0.297946 0.845281
26 1 20.6127 -0.712445 1.11541
27 1 20.0394 -1.47463 0.884492
28 1 21.0284 -1.71467 0.509769
29 1 20.6387 -0.948014 0.147062
30 1 21.1748 -0.203891 0.0721098
31 1 21.6202 -0.0043925 -0.770696
32 1 21.2184 -0.27097 -1.60077
33 1 21.8063 -0.906177 -1.16276
34 1 20.979 -1.19948 -0.665555
35 1 21.6318 -2.09159 -0.517099
36 1 22.3334 -1.46494 -0.443446
37 1 22.773 -0.69943 -1.04289
38 1 22.5078 -0.0495951 -1.79766
39 1 22.4143 0.498533 -1.12321
40 1 23.4373 0.755316 -1.13201
41 1 23.7616 0.983483 -2.16853
42 1 23.8314 0.375514 -2.99948
43 1 24.2627 0.914798 -3.70969
44 1 24.1116 1.86105 -4.03034
45 1 24.5865 1.97825 -4.86355
46 1 25.1886 1.44337 -4.2682
47 1 26.0267 1.78615 -4.93084
48 1 26.1112 2.53097 -5.60965
49 1 26.3514 3.48512 -5.1176
50 1 25.4598 4.0736 -4.85707
ITEM: TIMESTEP
13000
ITEM: NUMBER OF ATOMS
50
ITEM: BOX BOUNDS pp pp pp
-5.0000000000000000e+01 5.0000000000000000e+01
-5.0000000000000000e+01 5.0000000000000000e+01
-5.0000000000000000e+01 5.0000000000000000e+01
ITEM: ATOMS id type x y z
1 1 23.6328 1.95752 1.35868
2 1 22.9442 1.474 1.73536
3 1 22.6087 2.07082 1.04415
4 1 22.1069 1.4216 0.439993
5 1 21.9643 0.720759 -0.198849
6 1 21.5529 1.23226 -0.790291
7 1 21.0414 1.43615 0.135247
8 1 20.387 1.64335 -0.405378
9 1 20.0494 1.86812 0.541043
10 1 19.3783 1.21572 0.103529
11 1 19.0496 0.407424 0.588411
12 1 19.4611 -0.645601 0.51553
13 1 19.931 -1.4303 0.667671
14 1 19.7876 -1.81302 -0.23773
15 1 20.0915 -2.29839 -1.00959
16 1 20.7081 -2.84706 -0.55028
17 1 20.3132 -2.48787 0.326178
18 1 21.1541 -2.40548 0.616527
19 1 21.6113 -1.49352 1.03171
20 1 22.0163 -0.822098 1.55979
21 1 21.3179 -0.127563 1.26617
22 1 20.3854 -0.59526 1.19743
23 1 20.1193 0.0402221 0.553445
24 1 20.8648 0.330167 0.0252571
25 1 20.1503 0.487247 -0.642585
26 1 19.5278 -0.0621898 -0.348361
27 1 20.2678 -0.728738 -0.225618
28 1 21.0664 -0.96255 0.344096
29 1 21.6638 -1.65614 -0.199017
30 1 22.1554 -1.69947 -1.03667
31 1 21.568 -0.777935 -0.892716
32 1 22.5298 -0.819927 -1.6009
33 1 22.5446 -0.421085 -0.650886
34 1 22.9147 -1.29007 -0.422564
35 1 22.985 -1.14804 0.733742
36 1 22.3128 -0.5508 0.320952
37 1 22.8268 0.247402 0.516228
38 1 23.1893 1.15379 0.588987
39 1 22.9588 0.850094 -0.247868
40 1 23.9048 0.94588 -0.294636
41 1 23.6891 0.107118 -0.724638
42 1 23.3646 -0.436688 0.0344887
43 1 24.1897 -0.718515 -0.355365
44 1 24.8398 -0.326653 -1.14412
45 1 25.5643 -0.0422276 -0.78474
46 1 24.8991 0.591717 -0.0393746
47 1 25.4769 1.32219 0.144258
48 1 25.3516 2.25312 -0.279247
49 1 25.07 2.08772 -1.21683
50 1 25.0116 2.74279 -2.0906
ITEM: TIMESTEP
14000
ITEM: NUMBER OF ATOMS
50
ITEM: BOX BOUNDS pp pp pp
-5.0000000000000000e+01 5.0000000000000000e+01
-5.0000000000000000e+01 5.0000000000000000e+01
-5.0000000000000000e+01 5.0000000000000000e+01
ITEM: ATOMS id type x y z
1 1 20.4037 2.36241 0.26459
2 1 20.854 3.13716 0.535793
3 1 21.1015 3.41288 -0.439045
4 1 21.6164 2.67532 -0.0470633
5 1 21.2844 1.85029 -0.419663
6 1 21.6293 0.96112 -0.359424
7 1 21.9585 1.52459 -1.05519
8 1 22.6862 0.934155 -1.30883
9 1 22.3049 1.31928 -2.20338
10 1 22.4712 0.281537 -2.36169
11 1 21.9014 -0.265257 -2.82992
12 1 20.9965 -0.407893 -2.26184
13 1 21.1542 -0.774294 -1.32948
14 1 20.1595 -1.09348 -1.63899
15 1 19.6108 -0.563945 -0.966428
16 1 19.661 -1.43211 -0.542187
17 1 20.4571 -0.815266 -0.320918
18 1 21.3567 -0.770789 0.220964
19 1 21.9396 -0.0495985 -0.274023
20 1 21.584 0.165073 0.689573
21 1 20.7213 0.13912 0.121435
22 1 20.4474 1.06485 -0.265487
23 1 20.583 1.05867 -1.30782
24 1 20.991 0.138382 -0.951404
25 1 21.8217 -0.0130313 -1.34015
26 1 22.7213 -0.40883 -1.32713
27 1 22.6458 -1.43395 -0.966203
28 1 22.0739 -1.49766 -1.72078
29 1 21.4438 -1.74995 -1.1323
30 1 21.8959 -1.03741 -0.520384
31 1 22.4819 -1.02013 0.25303
32 1 22.6688 -1.97556 -0.0948244
33 1 23.4988 -1.66333 -0.436031
34 1 24.3328 -1.22694 -0.562447
35 1 24.4233 -1.73454 0.305946
36 1 23.5328 -1.29889 0.647084
37 1 22.8598 -0.678023 1.22939
38 1 22.9397 0.159347 0.613607
39 1 23.111 0.391529 1.50038
40 1 23.7335 -0.00276793 1.53742
41 1 24.6697 0.00879637 1.10532
42 1 24.244 -0.886182 1.39715
43 1 24.2034 -0.634848 2.29067
44 1 23.2077 -0.553378 2.46346
45 1 22.4778 -0.0988002 2.74939
46 1 21.6382 -0.533022 2.84734
47 1 21.3527 0.438441 2.16171
48 1 21.88 0.862273 2.85444
49 1 22.4711 0.871699 2.11011
50 1 22.2972 0.862957 1.08425
ITEM: TIMESTEP
15000
ITEM: NUMBER OF ATOMS
50
ITEM: BOX BOUNDS pp pp pp
-5.0000000000000000e+01 5.0000000000000000e+01
-5.0000000000000000e+01 5.0000000000000000e+01
-5.0000000000000000e+01 5.0000000000000000e+01
ITEM: ATOMS id type x y z
1 1 24.306 2.68155 -1.14207
2 1 25.0097 2.30691 -0.497686
3 1 24.0951 1.83559 -0.469127
4 1 24.0685 2.73914 0.187692
5 1 23.1123 2.2073 0.260342
6 1 23.0394 1.09975 -0.135499
7 1 22.4035 0.58208 0.347736
8 1 22.7449 1.0059 1.13369
9 1 23.6462 0.80021 0.582429
10 1 23.9439 0.197279 -0.164681
11 1 24.3811 0.159161 -1.1294
12 1 23.4448 -0.106065 -0.959847
13 1 23.2641 -0.444477 -1.85539
14 1 22.1935 -0.485728 -2.0408
15 1 22.9001 -0.554877 -2.71389
16 1 23.2337 -1.36541 -2.39261
17 1 22.5335 -1.43886 -1.71028
18 1 21.7369 -1.48028 -1.0745
19 1 21.1378 -0.83468 -0.672861
20 1 21.4255 -0.0872076 -1.36334
21 1 21.2083 0.0710463 -0.347857
22 1 21.8554 0.971276 -0.364875
23 1 22.2518 1.43445 -1.01907
24 1 23.0263 0.923362 -1.13031
25 1 22.3505 0.259233 -0.926572
26 1 22.3292 -0.663471 -0.79052
27 1 22.9513 -0.392284 0.0395734
28 1 23.7116 -0.897622 -0.473001
29 1 23.5711 -1.91524 -0.590223
30 1 22.6174 -2.12495 -0.809849
31 1 22.0779 -2.03206 -0.0657569
32 1 23.0108 -2.02497 0.550341
33 1 22.509 -1.0384 0.715618
34 1 21.9516 -0.645211 0.143369
35 1 21.9008 -0.0710506 0.949418
36 1 21.1468 0.471469 0.946078
37 1 21.3576 1.40161 1.26248
38 1 20.4221 0.854245 1.6642
39 1 19.9956 1.82597 1.89883
40 1 19.2833 1.53855 2.33446
41 1 19.1632 1.02362 1.63391
42 1 19.5466 0.107323 2.0182
43 1 19.9519 -0.609223 2.60032
44 1 20.4662 -0.656374 1.62338
45 1 21.2305 -0.977695 1.13164
46 1 20.5868 -0.485645 0.531376
47 1 19.7837 -0.131671 0.939442
48 1 19.5563 -1.04251 0.822684
49 1 19.5884 -1.78407 0.445038
50 1 20.4777 -2.20697 0.077772
ITEM: TIMESTEP
16000
ITEM: NUMBER OF ATOMS
50
ITEM: BOX BOUNDS pp pp pp
-5.0000000000000000e+01 5.0000000000000000e+01
-5.0000000000000000e+01 5.0000000000000000e+01
-5.0000000000000000e+01 5.0000000000000000e+01
ITEM: ATOMS id type x y z
1 1 25.6489 1.41108 0.534651
2 1 24.9693 0.993677 1.11156
3 1 25.2877 0.247358 0.508123
4 1 25.1448 0.694539 -0.22841
5 1 24.7477 1.69865 0.296616
6 1 23.864 1.66978 0.72073
7 1 23.4322 2.46515 0.0771158
8 1 22.7446 1.83106 -0.0482009
9 1 22.9006 1.84089 0.921337
10 1 23.4904 2.22387 1.4863
11 1 23.3209 1.39765 1.95865
12 1 23.5941 0.443941 1.62029
13 1 23.6875 -0.324126 1.85936
14 1 24.2696 -0.917542 1.15106
15 1 24.2359 -0.570594 0.260359
16 1 23.9047 -0.947965 -0.481289
17 1 22.8199 -1.16468 -0.543874
18 1 21.7911 -1.44613 -0.642423
19 1 22.0382 -0.37192 -0.483173
20 1 22.1416 -0.270826 0.406568
21 1 22.4646 0.472078 -0.131208
22 1 22.9072 0.450321 -1.06315
23 1 23.4509 0.0455903 -0.361772
24 1 24.1061 0.479606 0.139764
25 1 23.9026 1.23061 -0.555059
26 1 23.2635 0.995021 0.216734
27 1 22.7924 0.421398 0.820137
28 1 22.3051 -0.115524 1.61941
29 1 22.4424 -1.30906 1.70686
30 1 22.9569 -0.712844 0.981706
31 1 22.0913 -1.30986 0.61472
32 1 21.42 -0.912828 1.15984
33 1 20.9023 -0.559364 0.532441
34 1 20.1709 -1.15185 0.984806
35 1 19.8815 -0.273594 0.923623
36 1 19.5014 -0.707411 0.259915
37 1 19.748 -0.559397 -0.684219
38 1 18.7566 -0.369526 -0.555854
39 1 18.0573 -0.371701 -1.21063
40 1 18.7905 0.227342 -1.364
41 1 17.9978 -0.00601073 -2.07194
42 1 18.6181 -0.820039 -1.98694
43 1 19.4529 -0.885995 -1.79222
44 1 19.4158 -0.378703 -2.72118
45 1 19.6305 0.23814 -2.06472
46 1 20.4439 -0.38873 -2.12658
47 1 21.2228 -0.305124 -1.36991
48 1 20.7591 -1.05765 -0.777186
49 1 20.2339 -1.33712 -0.103528
50 1 20.7798 -1.93165 0.494799
ITEM: TIMESTEP
17000
ITEM: NUMBER OF ATOMS
50
ITEM: BOX BOUNDS pp pp pp
-5.0000000000000000e+01 5.0000000000000000e+01
-5.0000000000000000e+01 5.0000000000000000e+01
-5.0000000000000000e+01 5.0000000000000000e+01
ITEM: ATOMS id type x y z
1 1 23.4223 2.34693 -0.349815
2 1 23.5575 2.2717 0.469452
3 1 23.3157 1.48924 1.02321
4 1 23.0017 0.562737 1.21267
5 1 22.7284 0.688547 2.06278
6 1 23.7806 0.919852 1.99545
7 1 22.964 1.64935 2.08907
8 1 23.6339 2.13541 2.65668