ITEM: TIMESTEP
0
ITEM: NUMBER OF ATOMS
50
ITEM: BOX BOUNDS pp pp pp
-5.0000000000000000e+01 5.0000000000000000e+01
-5.0000000000000000e+01 5.0000000000000000e+01
-5.0000000000000000e+01 5.0000000000000000e+01
ITEM: ATOMS id type x y z
1 1 -2.35601 0 0
2 1 -1.35796 0 0
3 1 -0.36187 0 0
4 1 0.634205 0 0
5 1 1.6303 0 0
6 1 2.62639 0 0
7 1 3.62248 0 0
8 1 4.61855 0 0
9 1 5.61464 0 0
10 1 6.61071 0 0
11 1 7.6068 0 0
12 1 8.60288 0 0
13 1 9.59896 0 0
14 1 10.595 0 0
15 1 11.5911 0 0
16 1 12.5872 0 0
17 1 13.5833 0 0
18 1 14.5794 0 0
19 1 15.5755 0 0
20 1 16.5715 0 0
21 1 17.5676 0 0
22 1 18.5637 0 0
23 1 19.5598 0 0
24 1 20.5559 0 0
25 1 21.552 0 0
26 1 22.548 0 0
27 1 23.5441 0 0
28 1 24.5402 0 0
29 1 25.5363 0 0
30 1 26.5324 0 0
31 1 27.5285 0 0
32 1 28.5245 0 0
33 1 29.5206 0 0
34 1 30.5167 0 0
35 1 31.5128 0 0
36 1 32.5089 0 0
37 1 33.505 0 0
38 1 34.501 0 0
39 1 35.4971 0 0
40 1 36.4932 0 0
41 1 37.4893 0 0
42 1 38.4854 0 0
43 1 39.4814 0 0
44 1 40.4775 0 0
45 1 41.4736 0 0
46 1 42.4697 0 0
47 1 43.4658 0 0
48 1 44.4619 0 0
49 1 45.458 0 0
50 1 46.456 0 0
ITEM: TIMESTEP
1000
ITEM: NUMBER OF ATOMS
50
ITEM: BOX BOUNDS pp pp pp
-5.0000000000000000e+01 5.0000000000000000e+01
-5.0000000000000000e+01 5.0000000000000000e+01
-5.0000000000000000e+01 5.0000000000000000e+01
ITEM: ATOMS id type x y z
1 1 8.85421 0.407481 0.653612
2 1 8.28776 1.13929 0.859271
3 1 8.4139 1.38467 -0.225293
4 1 9.21695 1.0895 -0.0626467
5 1 9.74257 1.16227 0.929309
6 1 10.1461 0.557609 0.320267
7 1 10.0973 0.119822 -0.599551
8 1 10.9737 -0.274531 -0.650205
9 1 11.4768 -0.127314 0.12887
10 1 11.7068 0.873705 0.275887
11 1 12.169 0.806108 -0.676673
12 1 12.5074 0.175044 0.0701877
13 1 12.3625 -0.341167 -0.680185
14 1 13.2005 -0.472811 -1.19582
15 1 13.4569 -0.337794 -0.284819
16 1 14.2057 -0.599333 -0.681278
17 1 15.0971 -0.428548 -0.37989
18 1 15.8308 0.0241644 -0.15628
19 1 16.6657 -0.207742 -0.537274
20 1 17.6084 -0.63646 -0.4419
21 1 18.5902 -0.694452 -0.677511
22 1 18.8567 -0.642502 0.363971
23 1 19.608 -0.904791 -0.31712
24 1 19.8856 -0.891467 0.544361
25 1 20.412 -1.56328 0.0557081
26 1 21.4038 -1.18404 0.327289
27 1 22.3134 -1.33505 -0.247807
28 1 23.3261 -1.17086 -0.460356
29 1 23.9964 -1.62614 -1.11609
30 1 24.8356 -1.01759 -1.23584
31 1 25.8563 -1.07078 -1.29963
32 1 26.8727 -0.900543 -1.30988
33 1 27.7124 -0.610109 -1.27064
34 1 28.577 -0.241534 -1.19999
35 1 29.5246 -0.114708 -0.752831
36 1 29.4732 0.679928 -0.204827
37 1 30.387 0.380019 0.191511
38 1 30.778 -0.0939393 -0.684168
39 1 31.4652 0.570014 -0.390444
40 1 32.3457 1.12285 -0.122382
41 1 33.2993 0.557767 -0.239709
42 1 34.1308 0.896864 0.339866
43 1 34.8405 1.04797 -0.447442
44 1 35.0068 1.50657 0.472118
45 1 35.9788 1.31114 0.961171
46 1 35.4799 0.630986 1.47129
47 1 36.3356 0.753481 1.92297
48 1 36.5398 -0.213979 2.07464
49 1 36.1195 -0.0285457 2.8788
50 1 36.529 0.532768 3.70739
ITEM: TIMESTEP
2000
ITEM: NUMBER OF ATOMS
50
ITEM: BOX BOUNDS pp pp pp
-5.0000000000000000e+01 5.0000000000000000e+01
-5.0000000000000000e+01 5.0000000000000000e+01
-5.0000000000000000e+01 5.0000000000000000e+01
ITEM: ATOMS id type x y z
1 1 20.4836 2.74219 -0.37613
2 1 19.7867 2.17411 0.0276204
3 1 20.4998 1.73217 0.314984
4 1 21.1612 1.48257 -0.437709
5 1 20.3231 1.62404 -0.852938
6 1 19.9154 0.676395 -0.573549
7 1 20.9198 0.416559 0.00617079
8 1 21.0402 -0.298243 -0.819579
9 1 20.1566 -0.303283 0.00100795
10 1 19.8718 0.532084 0.465072
11 1 20.5866 0.0319854 1.1955
12 1 21.6374 0.254081 1.31393
13 1 21.9501 0.351481 0.35821
14 1 21.6387 -0.540039 0.397828
15 1 20.9718 -0.759586 0.557506
16 1 20.8564 -1.54169 0.0563154
17 1 20.7021 -2.49444 -0.403819
18 1 21.3526 -1.91513 -0.888396
19 1 22.3679 -1.94834 -0.65012
20 1 21.8549 -1.16126 -0.470504
21 1 22.3436 -1.09312 -1.41464
22 1 22.5975 -2.11091 -1.93194
23 1 21.5631 -1.73232 -1.928
24 1 21.0642 -0.967694 -1.70864
25 1 21.7066 -0.493742 -2.34245
26 1 22.2277 0.390089 -2.368
27 1 21.5307 0.588887 -1.91969
28 1 20.8723 0.91721 -1.28512
29 1 21.8394 0.387406 -0.668212
30 1 22.5032 0.100735 -1.22035
31 1 23.4983 0.0904323 -1.42714
32 1 23.272 1.01076 -1.03203
33 1 23.4673 0.520721 -0.186853
34 1 22.8495 -0.102738 0.516987
35 1 22.5929 -0.917944 0.391072
36 1 22.8224 -0.859116 -0.353852
37 1 24.0256 -1.25093 -0.642866
38 1 24.0544 -0.819694 0.0631464
39 1 24.1128 -1.35117 0.872063
40 1 23.2241 -1.11205 1.13526
41 1 23.0528 -0.190606 1.51214
42 1 23.4596 0.189572 2.28032
43 1 24.0967 0.676535 1.67205
44 1 24.437 0.525017 2.46661
45 1 23.6883 1.07206 2.97034
46 1 23.2917 1.3036 2.1605
47 1 22.5223 0.749906 2.23782
48 1 22.9514 0.76904 1.30803
49 1 22.0679 1.2471 1.25305
50 1 22.6876 1.40732 0.368972
ITEM: TIMESTEP
3000
ITEM: NUMBER OF ATOMS
50
ITEM: BOX BOUNDS pp pp pp
-5.0000000000000000e+01 5.0000000000000000e+01
-5.0000000000000000e+01 5.0000000000000000e+01
-5.0000000000000000e+01 5.0000000000000000e+01
ITEM: ATOMS id type x y z
1 1 24.5294 1.25289 0.263433
2 1 23.6289 1.1907 -0.206427
3 1 22.7945 0.931723 -0.538669
4 1 21.959 0.713843 -0.0754379
5 1 22.7077 1.3277 0.634486
6 1 21.7622 1.8202 0.526176
7 1 22.0028 1.7174 -0.455773
8 1 21.8526 0.742912 -1.04437
9 1 21.6923 0.812656 -1.97942
10 1 21.2196 1.52379 -1.57786
11 1 20.1785 1.31982 -1.14749
12 1 20.4039 0.487059 -0.59084
13 1 19.6905 -0.548864 -0.963051
14 1 20.1926 -0.478822 -0.118715
15 1 21.1242 -0.719774 -0.181156
16 1 21.1977 -1.31159 -0.564545
17 1 21.971 -1.08503 -1.25875
18 1 21.6246 -0.229838 -1.30232
19 1 22.4294 -0.161936 -1.82982
20 1 22.7115 0.741649 -1.58265
21 1 23.692 0.628968 -1.30631
22 1 23.0259 -0.191727 -0.861586
23 1 23.7171 -0.810553 -0.986818
24 1 24.725 -1.01883 -0.761629
25 1 25.3491 -1.01695 -0.225005
26 1 25.7161 0.00204426 -0.548413
27 1 25.2802 0.530243 0.245233
28 1 24.7663 0.448407 -0.723476
29 1 23.9121 0.0309354 -0.403412
30 1 23.4605 -0.664895 0.262318
31 1 23.074 -1.21051 1.12831
32 1 23.4487 -1.16568 1.87172
33 1 23.0275 -0.231524 1.9401
34 1 23.6815 0.00114851 1.05359
35 1 22.8991 0.353553 0.645834
36 1 22.4366 -0.259761 0.0441659
37 1 22.0972 -0.559348 1.03308
38 1 21.5815 -0.512864 1.805
39 1 21.3324 0.385646 1.98809
40 1 21.2638 0.0979351 0.898794
41 1 20.3744 -0.179851 1.65194
42 1 20.8614 -0.763126 1.01336
43 1 20.7066 -1.52098 0.512806
44 1 19.9884 -1.70142 1.23807
45 1 19.4451 -1.47303 0.325321
46 1 19.4693 -0.56562 0.856759
47 1 19.0028 -0.635739 -0.0513833
48 1 19.4406 0.183668 0.027493
49 1 19.6928 1.1797 0.249076
50 1 19.3593 0.593663 1.07018
ITEM: TIMESTEP
4000
ITEM: NUMBER OF ATOMS
50
ITEM: BOX BOUNDS pp pp pp
-5.0000000000000000e+01 5.0000000000000000e+01
-5.0000000000000000e+01 5.0000000000000000e+01
-5.0000000000000000e+01 5.0000000000000000e+01
ITEM: ATOMS id type x y z
1 1 21.1278 0.815871 0.465009
2 1 21.7524 0.578497 1.16429
3 1 21.876 1.56067 0.831101
4 1 22.434 0.851786 0.27238
5 1 21.6645 0.659368 -0.358029
6 1 21.6982 1.59791 -0.597668
7 1 22.5937 1.16079 -0.995645
8 1 23.571 1.13808 -1.44668
9 1 23.225 0.595246 -2.00556
10 1 22.142 0.597612 -1.81835
11 1 22.7274 -0.268555 -1.72622
12 1 22.3857 0.195822 -0.885602
13 1 22.1481 -0.420304 -0.43061
14 1 22.4282 -1.49881 -0.523598
15 1 23.1969 -0.782903 -0.744105
16 1 23.4895 0.203134 -0.926301
17 1 23.6266 0.924311 -0.0460933
18 1 23.3696 0.463291 0.663967
19 1 23.575 0.285874 1.47517
20 1 23.5951 -0.750936 1.97652
21 1 22.699 -0.303246 2.43087
22 1 23.1705 -0.214926 3.40429
23 1 23.3426 0.479048 2.6549
24 1 22.5279 0.54641 3.06263
25 1 22.2798 1.36064 2.65203
26 1 22.9895 1.30073 2.1974
27 1 22.5692 0.412754 1.78992
28 1 22.571 -0.326175 1.2567
29 1 22.2616 -0.139603 0.510103
30 1 23.1069 -0.560906 0.411443
31 1 23.4849 -1.44223 0.336629
32 1 24.0775 -2.25366 0.748026
33 1 23.4232 -3.00341 0.953706
34 1 22.4627 -3.05153 0.69933
35 1 22.3018 -2.01451 1.043
36 1 21.7858 -1.30253 0.482319
37 1 21.1355 -0.498287 0.807798
38 1 21.1047 -0.408452 -0.168071
39 1 20.6522 0.669873 -0.479781
40 1 20.318 0.011151 -0.942319
41 1 19.3399 0.200126 -1.09273
42 1 19.6752 0.881555 -0.864907
43 1 19.97 1.20344 -1.6314
44 1 19.3654 0.933555 -2.26348
45 1 19.236 -0.00408235 -2.25313
46 1 20.2826 0.227076 -1.96677
47 1 20.1086 -0.429777 -2.76863
48 1 21.0545 -0.540012 -2.48545
49 1 21.3895 -0.330292 -1.46195
50 1 21.1873 0.690525 -1.40646
ITEM: TIMESTEP
5000
ITEM: NUMBER OF ATOMS
50
ITEM: BOX BOUNDS pp pp pp
-5.0000000000000000e+01 5.0000000000000000e+01
-5.0000000000000000e+01 5.0000000000000000e+01
-5.0000000000000000e+01 5.0000000000000000e+01
ITEM: ATOMS id type x y z
1 1 21.349 1.32459 -0.00826716
2 1 21.9537 1.08572 0.745491
3 1 21.5608 0.416778 1.01116
4 1 21.4571 0.201711 0.112299
5 1 22.4573 0.46694 0.0814153
6 1 22.6303 0.61184 -0.904671
7 1 23.1387 -0.0395928 -0.447487
8 1 23.4664 0.786293 -0.0948066
9 1 24.0873 1.55833 0.0359068
10 1 24.455 0.73168 0.29135
11 1 23.8739 1.26136 1.0041
12 1 23.5815 2.14451 1.26807
13 1 22.8941 1.61255 1.00136
14 1 23.1786 1.26244 1.80269
15 1 22.9757 0.490543 2.50213
16 1 22.7073 0.29789 1.52302
17 1 23.5565 -0.077602 0.830647
18 1 22.5247 -0.508368 0.949181
19 1 21.7843 -0.905547 0.619912
20 1 20.9688 -0.464146 1.02392
21 1 20.1638 -0.370989 1.59709
22 1 20.4869 -1.24209 1.76915
23 1 21.2906 -1.09953 2.29339
24 1 21.438 -0.0672418 2.02554
25 1 20.6534 0.406182 2.37331
26 1 20.196 1.13842 1.92407
27 1 19.9452 0.917272 1.15758
28 1 20.5875 0.825566 0.510686
29 1 20.4286 0.347936 -0.271428
30 1 20.1874 -0.188925 0.439129
31 1 20.7676 -0.813662 -0.0656362
32 1 20.2119 -1.30004 0.627899
33 1 19.6476 -1.2479 -0.176944
34 1 20.1775 -1.93033 -0.15771
35 1 20.8494 -2.29633 -0.585065
36 1 20.8935 -1.56291 -1.24907
37 1 21.9171 -1.47806 -0.854773
38 1 22.5765 -0.888325 -1.27395
39 1 21.6869 -0.49205 -1.13257
40 1 20.863 -0.413523 -1.8396
41 1 21.6527 0.0529718 -2.17747
42 1 22.0434 -0.670966 -2.92237
43 1 22.7941 -0.429359 -3.2231
44 1 22.852 0.139675 -2.42265
45 1 23.3349 -0.588686 -1.92389
46 1 23.9906 -0.0874789 -2.18778
47 1 24.4163 0.708911 -2.3395
48 1 23.4264 0.751078 -1.72466
49 1 24.0714 0.299444 -1.07582
50 1 24.3489 -0.67696 -0.461273
ITEM: TIMESTEP
6000
ITEM: NUMBER OF ATOMS
50
ITEM: BOX BOUNDS pp pp pp
-5.0000000000000000e+01 5.0000000000000000e+01
-5.0000000000000000e+01 5.0000000000000000e+01
-5.0000000000000000e+01 5.0000000000000000e+01
ITEM: ATOMS id type x y z
1 1 20.2548 1.70372 -2.15434
2 1 20.9797 2.14976 -1.68145
3 1 21.6171 2.38454 -0.922799
4 1 21.8766 1.37772 -1.12945
5 1 22.4707 0.687035 -0.598899
6 1 23.2428 0.177921 -0.493965
7 1 24.036 0.240907 -0.925931
8 1 24.0908 0.224386 0.0955382
9 1 24.0531 0.829055 0.936344
10 1 23.305 1.43492 1.40214
11 1 22.3135 1.50845 0.987882
12 1 22.2371 0.448755 1.36815
13 1 21.0623 0.539511 1.28606
14 1 20.8866 -0.336417 0.826154
15 1 21.2668 -0.11338 0.0435009
16 1 22.2293 0.091852 0.282128
17 1 22.9308 0.452872 0.50958
18 1 23.2981 -0.204713 0.658031
19 1 22.6311 -0.987258 0.332051
20 1 22.3726 -1.8067 -0.11425
21 1 21.5773 -1.23575 0.0638507
22 1 20.7967 -0.68496 -0.626463
23 1 20.0038 -0.415382 0.0342875
24 1 19.6764 0.587346 0.440574
25 1 19.8192 1.29214 -0.28624
26 1 20.6991 0.76065 -0.131228
27 1 21.1929 0.539021 -0.943529
28 1 21.0156 0.274997 -2.03754
29 1 20.2892 0.213327 -1.3691
30 1 19.8521 -0.53686 -1.57443
31 1 19.503 0.177203 -2.34959
32 1 20.1713 -0.121991 -2.99919
33 1 19.5613 -0.603992 -2.89797
34 1 20.188 -1.39012 -2.27653
35 1 20.7946 -1.05955 -1.59754
36 1 21.7059 -0.360631 -1.28719
37 1 22.698 -0.426131 -1.09075
38 1 22.8446 -1.31609 -1.54383
39 1 23.4871 -1.22707 -0.584212
40 1 23.5146 -1.72844 0.216132
41 1 23.375 -2.41298 1.04055
42 1 22.7939 -2.19578 1.65877
43 1 23.4836 -1.43525 1.81468
44 1 24.2443 -0.844887 2.18988
45 1 23.9631 -0.189495 2.85909
46 1 24.2421 0.314362 2.16548
47 1 23.3975 0.321339 1.76763
48 1 22.9511 0.435958 2.67613
49 1 23.6829 0.756026 3.17111
50 1 23.8212 1.71005 2.79069
ITEM: TIMESTEP
7000
ITEM: NUMBER OF ATOMS
50
ITEM: BOX BOUNDS pp pp pp
-5.0000000000000000e+01 5.0000000000000000e+01
-5.0000000000000000e+01 5.0000000000000000e+01
-5.0000000000000000e+01 5.0000000000000000e+01
ITEM: ATOMS id type x y z
1 1 23.8835 1.28896 -1.42574
2 1 23.1888 1.14166 -0.889894
3 1 22.5422 1.6478 -0.443009
4 1 23.6658 1.52848 0.0452503
5 1 22.8968 0.920123 0.16722
6 1 22.8822 1.51908 0.968881
7 1 21.9738 1.26279 0.518613
8 1 22.4291 0.0692078 0.535943
9 1 22.2661 0.330211 1.56476
10 1 22.0267 1.15039 1.63436
11 1 21.2941 0.522439 1.26342
12 1 21.3385 0.557463 0.199122
13 1 20.9104 1.17464 -0.585402
14 1 21.0325 0.311617 -1.33663
15 1 21.4771 -0.0992872 -0.69355
16 1 21.5787 -0.534101 0.316545
17 1 21.6266 -1.38 0.785171
18 1 20.8438 -1.11913 0.936803
19 1 20.6298 -1.64733 0.0494549
20 1 21.5373 -2.18518 0.109448
21 1 21.7209 -1.39761 -0.449638
22 1 21.3756 -0.970115 -1.39772
23 1 22.2354 -1.03297 -1.92539
24 1 21.981 0.0563605 -1.64807
25 1 21.3519 0.704796 -2.28848
26 1 21.3669 1.63376 -1.47466
27 1 22.4161 1.29769 -1.486
28 1 21.9895 0.804443 -0.726654
29 1 22.4556 -0.0125912 -0.646711
30 1 23.0481 -0.0805154 -1.28521
31 1 23.9002 0.259694 -1.99984
32 1 24.6787 0.66827 -1.71245
33 1 24.8741 -0.0427847 -1.17875
34 1 23.9107 -0.246896 -0.707544
35 1 23.5687 0.275403 -0.0851867
36 1 23.2568 -0.587162 0.0660423
37 1 23.6786 -0.208861 0.73668
38 1 23.1038 -0.493676 1.73869
39 1 23.4053 -0.832335 2.70243
40 1 22.4784 -0.492517 2.59185
41 1 22.5296 -1.3222 1.94326
42 1 21.7941 -0.6186 1.58292
43 1 20.9481 -0.88955 2.22695
44 1 20.2651 -0.388591 1.57227
45 1 19.2378 -0.380735 1.72844
46 1 19.6764 0.123762 0.852048
47 1 20.0535 -0.701496 0.369732
48 1 20.1019 0.0250117 -0.25645
49 1 20.6035 -0.802263 -0.745724
50 1 20.4698 -0.807527 -1.81759
ITEM: TIMESTEP
8000
ITEM: NUMBER OF ATOMS
50
ITEM: BOX BOUNDS pp pp pp
-5.0000000000000000e+01 5.0000000000000000e+01
-5.0000000000000000e+01 5.0000000000000000e+01
-5.0000000000000000e+01 5.0000000000000000e+01
ITEM: ATOMS id type x y z
1 1 24.2973 -0.668432 1.56391
2 1 23.4737 -0.127648 2.16053
3 1 23.1727 0.603837 1.53246
4 1 23.3166 1.16114 0.609255
5 1 22.2523 1.43081 0.791712
6 1 22.1631 2.29866 0.430616
7 1 22.0736 2.27706 -0.413216
8 1 20.9773 2.44104 -0.464655
9 1 20.5523 1.60144 -1.0847
10 1 21.313 1.37391 -0.725829
11 1 22.2055 1.19805 -0.644598
12 1 21.4742 0.414489 -0.274081
13 1 21.9844 -0.381387 -0.672904
14 1 21.249 -0.685109 -0.106386
15 1 21.9801 -1.39081 -0.00325697
16 1 21.3103 -1.38513 -0.789247
17 1 21.3408 -1.69663 -1.77809
18 1 22.167 -1.46652 -2.33341
19 1 22.2575 -1.41672 -1.29628
20 1 22.1832 -2.5364 -0.895131
21 1 22.6453 -2.19975 -1.7934
22 1 23.2847 -1.54749 -1.48611
23 1 23.7866 -0.83913 -1.76563
24 1 23.2861 -0.245629 -1.21712
25 1 23.4541 -0.944578 -0.625533
26 1 22.6541 -0.552726 0.194849
27 1 22.5156 0.00703126 0.738901
28 1 22.7171 -0.669486 1.47138
29 1 21.8483 -1.22582 1.93699
30 1 22.8018 -1.67279 2.02149
31 1 22.8724 -0.916613 2.63591
32 1 22.2544 -0.22038 2.43133
33 1 22.3136 0.0365191 3.35884
34 1 22.5922 0.871434 2.66534
35 1 22.4885 1.42145 1.76105
36 1 21.6607 0.810682 1.88163
37 1 21.1809 0.125363 2.02489
38 1 21.4655 -0.40559 1.00289
39 1 21.5712 0.51269 0.751229
40 1 21.3946 1.53537 0.305631
41 1 20.6896 1.02944 0.903055
42 1 20.3025 1.23605 -0.0184336
43 1 20.3067 0.509866 -0.791082
44 1 20.9925 -0.208151 -1.01253
45 1 20.7573 0.161747 -1.8916
46 1 21.2679 -0.18805 -2.80318
47 1 21.8037 0.492129 -2.72798
48 1 22.4539 -0.069351 -2.09528
49 1 21.6986 -0.45647 -1.72779
50 1 21.6957 0.566576 -1.73642
ITEM: TIMESTEP
9000
ITEM: NUMBER OF ATOMS
50
ITEM: BOX BOUNDS pp pp pp
-5.0000000000000000e+01 5.0000000000000000e+01
-5.0000000000000000e+01 5.0000000000000000e+01
-5.0000000000000000e+01 5.0000000000000000e+01
ITEM: ATOMS id type x y z
1 1 23.2879 -0.192028 2.07127
2 1 22.2561 -0.402231 2.01153
3 1 21.2354 -0.689853 1.90707
4 1 21.2782 0.113602 2.41761
5 1 21.807 0.798673 2.75021
6 1 22.4203 0.646751 1.83622
7 1 22.1126 0.370782 0.880853
8 1 23.0026 0.15714 0.740577
9 1 23.5044 1.11836 0.692406
10 1 24.315 0.827511 0.517334
11 1 23.9035 1.0089 -0.450266
12 1 22.9821 0.927039 -0.246007
13 1 22.7777 0.125736 -0.281156
14 1 22.0731 -0.258918 0.10526
15 1 22.0929 -1.10087 -0.538865
16 1 22.8503 -0.809754 -0.540889
17 1 23.6616 -0.452889 -0.0480165
18 1 24.0655 -1.13402 -0.367563
19 1 23.5464 -1.66793 -0.804321
20 1 23.0966 -2.38656 -0.299089
21 1 23.0054 -1.57572 0.153032
22 1 22.8893 -0.866295 0.674556
23 1 22.4996 -1.13411 1.26309
24 1 21.6578 -0.85359 0.932735
25 1 21.2124 -1.3737 0.474643
26 1 20.1968 -0.882563 0.418683
27 1 20.6708 -0.249036 0.368877
28 1 20.2918 -0.225772 1.33683
29 1 20.9047 0.750655 1.37834
30 1 20.5233 1.13375 0.456352
31 1 20.6581 1.03206 -0.337134
32 1 19.8142 1.14133 -0.445487
33 1 19.6655 0.303833 0.283647
34 1 18.8285 0.148174 -0.379481
35 1 19.6219 -0.494821 -0.659207
36 1 19.9473 0.319778 -0.955276
37 1 20.5883 -0.182303 -1.55979
38 1 20.6149 -1.34775 -1.62839
39 1 20.7424 -0.796329 -0.662264
40 1 21.4644 0.160222 -0.716538
41 1 21.9539 -0.344889 -1.27256
42 1 22.5579 -0.0355537 -2.08034
43 1 23.1004 -0.89111 -1.67319
44 1 23.6108 -0.309615 -1.04939
45 1 23.0104 0.516971 -1.263
46 1 22.113 1.03779 -0.769966
47 1 22.0049 1.89022 -0.891451
48 1 23.0857 1.7838 -1.13554
49 1 24.0134 2.0835 -1.66811
50 1 24.9833 2.26163 -0.947865
ITEM: TIMESTEP
10000
ITEM: NUMBER OF ATOMS
50
ITEM: BOX BOUNDS pp pp pp
-5.0000000000000000e+01 5.0000000000000000e+01
-5.0000000000000000e+01 5.0000000000000000e+01
-5.0000000000000000e+01 5.0000000000000000e+01
ITEM: ATOMS id type x y z
1 1 21.4113 0.411975 3.00514
2 1 21.8065 1.27981 2.91695
3 1 21.2641 1.88705 2.1829
4 1 21.7913 2.43893 1.47138
5 1 21.2074 1.86558 1.02549
6 1 20.5092 1.22554 0.83661
7 1 19.6962 0.735227 0.510097
8 1 20.3089 0.129833 1.45304
9 1 20.951 0.70418 1.8057
10 1 21.7778 1.21739 1.67071
11 1 21.4481 0.547398 0.889299
12 1 20.8002 0.603951 -0.0898163
13 1 21.0182 0.648035 -1.0738
14 1 21.7862 0.205807 -0.308312
15 1 20.9318 -0.361816 -0.631049
16 1 20.0375 -0.133458 -0.511311
17 1 19.7141 -0.960579 -0.0339047
18 1 20.4387 -0.6999 0.238222
19 1 21.3694 -0.901543 0.381035
20 1 21.6279 -1.77999 -0.020475
21 1 21.8299 -0.913105 -0.470053
22 1 22.6751 -0.561313 -0.572299
23 1 22.7501 -0.775509 -1.50944
24 1 22.8649 -1.82422 -1.42094
25 1 21.8356 -1.64028 -1.57303
26 1 21.5833 -0.582023 -1.6905
27 1 22.0122 0.248482 -1.43713
28 1 21.799 1.297 -1.71416
29 1 21.7411 2.1559 -1.43001
30 1 21.1251 1.61594 -1.10338
31 1 21.0275 1.83985 0.00935649
32 1 21.7023 1.31048 0.258877
33 1 22.1954 1.19787 -0.487876
34 1 22.9057 1.37635 -1.12998
35 1 22.8383 0.838949 -1.89954
36 1 23.327 -0.0359572 -2.05065
37 1 23.0251 0.268791 -1.0468
38 1 23.7953 -0.184406 -0.461214
39 1 24.6048 -1.09191 -0.716866
40 1 24.7381 -1.78422 0.0350153
41 1 24.6312 -0.873799 0.312462
42 1 23.4744 -1.04473 0.0428282
43 1 23.7357 -1.54778 -0.905989
44 1 22.7066 -1.57416 -0.379238
45 1 23.5799 -2.20336 0.321014
46 1 22.8187 -1.89505 1.06869
47 1 22.3999 -1.04103 0.582526
48 1 22.528 -0.0453207 0.584627
49 1 23.3635 -0.585699 1.16532
50 1 22.9906 -1.00914 1.90048
ITEM: TIMESTEP
11000
ITEM: NUMBER OF ATOMS
50
ITEM: BOX BOUNDS pp pp pp
-5.0000000000000000e+01 5.0000000000000000e+01
-5.0000000000000000e+01 5.0000000000000000e+01
-5.0000000000000000e+01 5.0000000000000000e+01
ITEM: ATOMS id type x y z
1 1 21.189 -0.464476 0.74823
2 1 20.9681 0.0698137 0.003778
3 1 21.6486 0.273227 -0.568826
4 1 21.1715 0.267254 -1.28925
5 1 20.65 0.993994 -1.21082
6 1 20.4804 1.90541 -1.61587
7 1 21.136 2.11389 -2.18415
8 1 21.4303 1.39641 -2.03612
9 1 20.703 0.686134 -2.27971
10 1 21.083 -0.109444 -2.28981
11 1 21.3892 0.482022 -2.95661
12 1 21.8872 0.527697 -2.20302
13 1 22.556 0.775446 -1.35574
14 1 22.691 -0.147103 -1.7772
15 1 22.63 -0.691702 -1.08517
16 1 22.349 -1.60172 -1.69805
17 1 21.8463 -1.07794 -1.96423
18 1 21.3422 -0.847866 -1.42979
19 1 21.4807 -0.751945 -0.49768
20 1 20.7582 -1.29085 0.0374636
21 1 20.1576 -0.943719 1.05944
22 1 20.8815 -0.453285 1.77251
23 1 21.7616 -0.220683 1.73516
24 1 21.7958 0.453656 0.825673
25 1 22.3386 1.22138 0.91516
26 1 22.8547 0.740296 0.609245
27 1 23.4604 -0.119467 0.267161
28 1 23.2865 0.372729 -0.528287
29 1 22.9858 1.34478 -0.270346
30 1 22.2502 1.0784 -0.103268
31 1 22.2073 2.06342 0.130786
32 1 21.4374 1.58734 0.480626
33 1 20.8769 0.875469 1.24837
34 1 21.4968 0.683303 1.94008
35 1 21.9457 1.21735 2.38666
36 1 22.0503 0.581325 3.03363
37 1 22.6836 -0.0152612 2.48163
38 1 22.615 -0.816775 2.01738
39 1 23.5698 -0.790516 2.30558
40 1 24.4349 -0.18239 2.13368
41 1 23.9754 -0.546397 1.24896
42 1 23.2069 -1.0695 0.904022
43 1 22.9595 -0.117139 1.16706
44 1 22.4879 -0.444391 0.190998
45 1 22.0579 -0.932754 0.934598
46 1 21.7445 -1.4366 0.272637
47 1 21.973 -1.77391 -0.552228
48 1 22.6536 -1.5928 -0.101742
49 1 23.3981 -2.05907 -0.259667
50 1 23.563 -1.21303 -0.592934
ITEM: TIMESTEP
12000
ITEM: NUMBER OF ATOMS
50
ITEM: BOX BOUNDS pp pp pp
-5.0000000000000000e+01 5.0000000000000000e+01
-5.0000000000000000e+01 5.0000000000000000e+01
-5.0000000000000000e+01 5.0000000000000000e+01
ITEM: ATOMS id type x y z
1 1 21.87 -0.192811 -2.11414
2 1 22.0079 0.135509 -1.17677
3 1 22.2882 1.09862 -0.695941
4 1 21.8706 1.35592 -0.0142713
5 1 22.6187 0.686717 0.117813
6 1 23.742 1.03738 0.231848
7 1 23.5523 1.09288 -0.692734
8 1 23.0655 0.177734 -1.03676
9 1 24.0331 0.12205 -0.397019
10 1 24.3598 -0.15892 -1.16827
11 1 23.619 -0.143418 -1.82516
12 1 23.4817 -0.681644 -1.05375
13 1 23.0092 -1.00292 -2.0398
14 1 23.6175 -1.53597 -1.63723
15 1 24.3369 -1.49156 -0.840327
16 1 24.8887 -0.740874 -0.488885
17 1 24.3722 -1.04781 0.174893
18 1 23.3925 -1.25385 -0.247129
19 1 22.8188 -2.05513 -0.0209402
20 1 22.1938 -1.42386 -0.517482
21 1 21.8174 -1.1535 0.374529
22 1 21.223 -0.827038 -0.414039
23 1 21.0036 -0.494075 -1.21145
24 1 20.8271 0.499992 -1.29323
25 1 20.2151 -0.188983 -0.730114
26 1 20.276 0.928767 -0.399058
27 1 21.1935 0.640895 -0.0978098
28 1 21.8425 -0.102633 0.0685272
29 1 21.6648 -0.0105977 1.03829
30 1 21.8254 0.846752 1.26373
31 1 20.7878 0.682818 1.35116
32 1 21.0211 1.4591 0.666777
33 1 20.6875 2.26218 1.54769
34 1 20.0275 2.12599 0.586281
35 1 19.0543 2.0095 0.986407
36 1 19.3772 1.64441 -0.0280352
37 1 19.9753 1.03251 0.706317
38 1 19.5568 0.376521 1.23409
39 1 19.3114 0.245308 0.341031
40 1 19.6375 -0.65327 0.146056
41 1 20.3088 -0.0299051 0.509108
42 1 20.9192 -0.641989 1.06614
43 1 21.5526 -1.11836 1.71303
44 1 22.5156 -1.29107 1.10029
45 1 23.5336 -1.0292 1.07838
46 1 24.3744 -0.897894 1.21138
47 1 23.829 -0.176323 0.633166
48 1 23.2658 0.498684 1.06171
49 1 22.7824 -0.310443 0.881846
50 1 22.9553 -0.306195 0.0498541
ITEM: TIMESTEP
13000
ITEM: NUMBER OF ATOMS
50
ITEM: BOX BOUNDS pp pp pp
-5.0000000000000000e+01 5.0000000000000000e+01
-5.0000000000000000e+01 5.0000000000000000e+01
-5.0000000000000000e+01 5.0000000000000000e+01
ITEM: ATOMS id type x y z
1 1 23.8441 0.923355 -1.0672
2 1 23.4753 0.223751 -0.786504
3 1 23.5229 0.634225 0.0306346
4 1 22.9305 1.08676 -0.443734
5 1 22.8975 1.55724 0.440051
6 1 22.6336 2.1932 0.193605
7 1 21.7922 1.77212 0.0812643
8 1 21.6528 0.919152 0.57105
9 1 22.5324 0.344621 0.843338
10 1 22.3233 -0.80965 0.839876
11 1 22.0816 -0.498219 1.66391
12 1 22.8326 0.133481 1.88736
13 1 22.6011 -0.347119 2.71229
14 1 21.821 -0.91454 2.59175
15 1 22.5299 -1.50203 1.94423
16 1 23.1364 -1.86038 1.36991
17 1 23.5937 -1.11369 1.63416
18 1 24.1641 -0.611318 1.00986
19 1 23.7769 -1.3288 0.293583
20 1 23.2807 -0.57923 0.399693
21 1 22.718 -1.19137 -0.214327
22 1 22.9885 -1.03227 -1.33219
23 1 22.6914 -0.235577 -1.9274
24 1 22.7876 0.615041 -1.42679
25 1 22.5633 1.47405 -1.82375
26 1 21.7885 2.13261 -2.41808
27 1 20.8719 1.89257 -1.85754
28 1 21.5885 2.22331 -1.27893
29 1 21.9762 1.41452 -0.894204
30 1 21.8626 0.576153 -1.00064
31 1 21.7809 -0.290047 -1.05797
32 1 20.9843 -0.410259 -0.531116
33 1 20.3324 -0.954901 -0.204922
34 1 20.292 0.113881 0.177067
35 1 20.9141 0.723801 -0.375774
36 1 20.291 1.34674 -1.01066
37 1 21.0096 0.790794 -1.64838
38 1 20.8017 0.121879 -2.29949
39 1 21.1919 -0.780406 -1.85964
40 1 21.6073 -1.35171 -1.07518
41 1 21.2631 -1.59606 -0.402446
42 1 21.134 -0.964301 0.618511
43 1 21.679 -1.76653 0.957986
44 1 21.2571 -1.27914 1.57655
45 1 20.497 -0.936766 2.15918
46 1 20.8019 -0.405299 1.61918
47 1 21.4076 0.227671 1.25659
48 1 21.5197 -0.00432953 0.456537
49 1 21.8908 -0.667052 -0.142659
50 1 22.5857 -0.00993888 -0.248657
ITEM: TIMESTEP
14000
ITEM: NUMBER OF ATOMS
50
ITEM: BOX BOUNDS pp pp pp
-5.0000000000000000e+01 5.0000000000000000e+01
-5.0000000000000000e+01 5.0000000000000000e+01
-5.0000000000000000e+01 5.0000000000000000e+01
ITEM: ATOMS id type x y z
1 1 24.2619 0.205699 2.06758
2 1 23.7828 -0.258237 1.41948
3 1 23.0085 -0.122293 2.13411
4 1 22.8002 0.434826 1.2627
5 1 22.275 0.791486 2.01592
6 1 21.7485 1.16983 2.99556
7 1 21.0757 1.66742 2.30269
8 1 22.0324 1.83458 1.60738
9 1 22.0615 1.26689 0.842027
10 1 21.0665 1.2033 0.551049
11 1 20.4932 2.03879 0.239207
12 1 21.1733 2.1539 1.07591
13 1 20.2568 2.05884 1.65305
14 1 20.4058 1.07103 1.59935
15 1 21.294 0.861739 1.54306
16 1 21.311 0.274264 2.36977
17 1 20.2709 0.111927 2.04538
18 1 20.7642 -0.286036 1.34602
19 1 21.0906 -0.456295 0.41279
20 1 21.5028 -0.947816 0.945302
21 1 21.842 -0.0156293 1.22123
22 1 22.7277 -0.661664 1.17967
23 1 22.5309 -0.0785244 0.292447
24 1 23.2789 -0.715258 -0.125629
25 1 23.9729 0.00887765 0.176659
26 1 23.7355 1.06381 0.148427
27 1 23.9332 0.486065 -0.728261
28 1 23.2609 0.436368 -1.4348
29 1 22.8787 0.13571 -2.10882
30 1 22.5539 -0.553543 -1.19875
31 1 21.7523 -0.102871 -1.59452
32 1 21.8954 -0.592277 -2.25517
33 1 22.0603 -1.3764 -2.97498
34 1 22.7172 -2.07587 -2.64106
35 1 23.0436 -1.99232 -1.46151
36 1 23.6436 -1.74011 -2.22698
37 1 23.8466 -0.79302 -2.41528
38 1 22.797 -1.13081 -2.1595
39 1 22.1407 -1.52638 -1.6502
40 1 21.5777 -2.09944 -1.14351
41 1 21.3884 -1.8874 -0.315371
42 1 21.8157 -1.14919 -0.306933
43 1 21.3036 -1.02575 -1.24278
44 1 20.7041 -0.893952 -0.630133
45 1 20.8191 -0.0456582 -1.14818
46 1 21.252 0.674273 -1.93715
47 1 22.062 0.898143 -1.33733
48 1 22.3712 0.814152 -0.278319
49 1 21.4709 0.407259 -0.193933
50 1 20.4487 0.457559 0.0623213
ITEM: TIMESTEP
15000
ITEM: NUMBER OF ATOMS
50
ITEM: BOX BOUNDS pp pp pp
-5.0000000000000000e+01 5.0000000000000000e+01
-5.0000000000000000e+01 5.0000000000000000e+01
-5.0000000000000000e+01 5.0000000000000000e+01
ITEM: ATOMS id type x y z
1 1 19.9411 -0.575476 1.00674
2 1 19.8817 0.617605 1.10262
3 1 20.6436 0.215808 0.967882
4 1 21.014 -0.191566 1.88821
5 1 20.8831 0.883473 1.782
6 1 21.2946 1.04403 2.60914
7 1 22.0152 1.13965 1.993
8 1 22.0877 0.231549 1.59187
9 1 21.4372 0.859314 0.898558
10 1 21.2903 1.40288 0.0499784
11 1 20.3534 1.39944 0.378136
12 1 19.9286 0.562611 0.0274268
13 1 20.9254 0.443892 -0.0413835
14 1 20.3156 -0.153943 -0.635011
15 1 19.341 0.543049 -0.784056
16 1 19.4132 -0.289262 -1.35978
17 1 20.2006 -0.587618 -1.54459
18 1 21.0783 -0.822044 -1.33797
19 1 22.0139 -0.274434 -1.64997
20 1 22.1205 -0.799185 -0.871164
21 1 21.5791 -0.552304 -0.0712849
22 1 22.538 -0.317405 0.0571311
23 1 23.0215 -0.699368 0.2621
24 1 22.3052 -0.749681 0.884539
25 1 22.8576 -0.240067 1.17367
26 1 23.0706 0.420616 1.84242
27 1 23.1281 0.692666 0.788033
28 1 23.0808 0.518438 -0.097604
29 1 23.6899 0.907981 -0.779299
30 1 23.9745 0.107638 -1.63095
31 1 24.1443 -0.79159 -1.22674
32 1 24.1144 -1.62448 -1.05857
33 1 23.2497 -1.4769 -0.445627
34 1 22.456 -1.65166 0.313696
35 1 22.3177 -1.79662 1.27357
36 1 22.8388 -0.962067 2.03532
37 1 23.2802 -1.27048 1.17358
38 1 23.8836 -1.20348 0.426478
39 1 23.8552 -0.229989 0.693198
40 1 24.0345 -0.180683 -0.331368
41 1 23.1174 -0.29862 -0.862112
42 1 23.1372 -0.8772 -1.58757
43 1 22.877 0.218116 -1.98813
44 1 23.2311 1.07665 -1.81285
45 1 22.207 1.25532 -1.5201
46 1 22.4135 1.38129 -0.604227
47 1 22.0207 0.7095 0.0787074
48 1 22.3024 0.262505 -0.862889
49 1 21.3844 0.734088 -1.01991
50 1 20.2106 0.988004 -1.17483
ITEM: TIMESTEP
16000
ITEM: NUMBER OF ATOMS
50
ITEM: BOX BOUNDS pp pp pp
-5.0000000000000000e+01 5.0000000000000000e+01
-5.0000000000000000e+01 5.0000000000000000e+01
-5.0000000000000000e+01 5.0000000000000000e+01
ITEM: ATOMS id type x y z
1 1 20.2456 -0.0719528 -2.54033
2 1 19.9547 -0.582918 -1.58627
3 1 19.8086 -1.61069 -1.84165
4 1 19.8806 -1.67143 -0.893454
5 1 20.0058 -0.994122 -0.491414
6 1 20.7777 -1.19095 -0.799878
7 1 20.7618 -0.621701 0.112621
8 1 21.5367 -0.0874545 0.0645354
9 1 21.8265 -0.679954 -0.719457
10 1 21.7823 -0.673482 -1.7717
11 1 21.0129 -0.356829 -1.41751
12 1 21.7681 0.481221 -1.41697
13 1 21.8496 0.391525 -2.27406
14 1 22.6495 0.394378 -3.07136
15 1 22.8466 0.903207 -2.14319
16 1 23.2072 -0.107568 -2.29638
17 1 22.59 0.0361 -1.58838
18 1 22.4265 0.569906 -0.674453
19 1 21.9023 0.96357 -0.0772969
20 1 21.135 1.60583 0.431712
21 1 21.0828 0.674094 0.613096
22 1 20.6447 0.547479 1.51567
23 1 21.0121 1.47599 1.5416
24 1 21.5367 2.25841 1.74536
25 1 22.3488 1.89771 1.52129
26 1 22.6584 2.59371 1.06627
27 1 22.4549 2.03594 0.374562
28 1 23.0355 1.2831 0.982443
29 1 22.747 1.10883 1.96395
30 1 22.522 0.281684 2.03847
31 1 22.9038 -0.627611 2.11769
32 1 22.0983 -0.980929 1.59681
33 1 22.8189 -1.01573 1.12179
34 1 22.7633 -1.65144 1.85304
35 1 22.1819 -1.86128 1.19689
36 1 21.4674 -1.02872 0.793277
37 1 20.9175 -0.345127 1.16083
38 1 21.7302 0.0624101 1.364
39 1 21.9391 1.02235 1.19333
40 1 22.3637 0.325684 0.629288
41 1 23.2087 0.341041 1.06258
42 1 23.6779 0.129553 0.292385
43 1 23.5464 -0.703674 -0.0294414
44 1 23.0423 -1.45153 0.154714
45 1 22.0844 -1.49988 -0.050357
46 1 22.6112 -0.58683 0.0336163
47 1 22.8252 -1.03605 -0.8838
48 1 23.4182 -0.204881 -1.1049
49 1 24.217 -0.120129 -0.808688
50 1 24.6737 0.379121 -0.0608952
ITEM: TIMESTEP
17000
ITEM: NUMBER OF ATOMS
50
ITEM: BOX BOUNDS pp pp pp
-5.0000000000000000e+01 5.0000000000000000e+01
-5.0000000000000000e+01 5.0000000000000000e+01
-5.0000000000000000e+01 5.0000000000000000e+01
ITEM: ATOMS id type x y z
1 1 23.8425 -0.848252 -3.01396
2 1 24.2159 -1.22939 -2.16042
3 1 23.6046 -1.50092 -1.21494
4 1 22.7965 -1.37368 -1.91708
5 1 22.6779 -0.652167 -2.40269
6 1 21.8658 -0.65636 -1.74594
7 1 22.2687 0.411882 -2.08725
8 1 22.4567 0.694359 -1.25143