ITEM: TIMESTEP
0
ITEM: NUMBER OF ATOMS
50
ITEM: BOX BOUNDS pp pp pp
-5.0000000000000000e+01 5.0000000000000000e+01
-5.0000000000000000e+01 5.0000000000000000e+01
-5.0000000000000000e+01 5.0000000000000000e+01
ITEM: ATOMS id type x y z
1 1 -2.32738 0 0
2 1 -1.3291 0 0
3 1 -0.332551 0 0
4 1 0.663839 0 0
5 1 1.66007 0 0
6 1 2.65616 0 0
7 1 3.65208 0 0
8 1 4.64787 0 0
9 1 5.64349 0 0
10 1 6.63897 0 0
11 1 7.63428 0 0
12 1 8.62946 0 0
13 1 9.62447 0 0
14 1 10.6193 0 0
15 1 11.6141 0 0
16 1 12.6086 0 0
17 1 13.603 0 0
18 1 14.5973 0 0
19 1 15.5914 0 0
20 1 16.5854 0 0
21 1 17.5792 0 0
22 1 18.5726 0 0
23 1 19.5664 0 0
24 1 20.5597 0 0
25 1 21.5532 0 0
26 1 22.5468 0 0
27 1 23.5403 0 0
28 1 24.5336 0 0
29 1 25.5274 0 0
30 1 26.5208 0 0
31 1 27.5146 0 0
32 1 28.5086 0 0
33 1 29.5027 0 0
34 1 30.497 0 0
35 1 31.4914 0 0
36 1 32.4859 0 0
37 1 33.4807 0 0
38 1 34.4755 0 0
39 1 35.4705 0 0
40 1 36.4657 0 0
41 1 37.461 0 0
42 1 38.4565 0 0
43 1 39.4521 0 0
44 1 40.4479 0 0
45 1 41.4438 0 0
46 1 42.4399 0 0
47 1 43.4362 0 0
48 1 44.4326 0 0
49 1 45.4291 0 0
50 1 46.4274 0 0
ITEM: TIMESTEP
1000
ITEM: NUMBER OF ATOMS
50
ITEM: BOX BOUNDS pp pp pp
-5.0000000000000000e+01 5.0000000000000000e+01
-5.0000000000000000e+01 5.0000000000000000e+01
-5.0000000000000000e+01 5.0000000000000000e+01
ITEM: ATOMS id type x y z
1 1 7.94279 0.616269 0.876019
2 1 8.60827 0.639026 -0.104292
3 1 8.75485 1.5003 -0.306439
4 1 9.06763 2.25904 0.408607
5 1 8.91859 1.19246 0.757212
6 1 9.6133 1.01615 -0.029952
7 1 9.72457 0.449742 0.855173
8 1 9.96401 -0.483779 0.441032
9 1 10.6722 0.302946 0.253956
10 1 11.2207 -0.259509 -0.413821
11 1 11.8665 0.0327845 -1.10336
12 1 12.2328 0.217583 -0.36048
13 1 13.0903 0.180321 -0.883612
14 1 13.5322 -0.634131 -1.33736
15 1 13.5767 -0.968939 -0.418204
16 1 14.2607 -0.362618 -0.398356
17 1 15.1241 -0.252001 -0.712091
18 1 16.0631 -0.207675 -0.296089
19 1 17.0686 -0.202935 -0.490219
20 1 17.8824 -0.649847 -0.173367
21 1 18.7483 -0.522493 -0.663
22 1 18.9766 -0.531772 0.343453
23 1 19.6579 -1.04581 -0.230482
24 1 19.9902 -0.916272 0.675056
25 1 20.5473 -1.59872 0.322577
26 1 21.4877 -1.29832 0.115008
27 1 22.3297 -1.4424 -0.200485
28 1 23.2135 -1.34661 -0.655662
29 1 24.1418 -1.5502 -0.985364
30 1 25.0756 -1.08717 -1.22608
31 1 26.0682 -0.992755 -1.3877
32 1 27.0383 -0.940661 -1.29955
33 1 27.8506 -0.462033 -1.31364
34 1 28.7817 -0.174773 -1.1509
35 1 29.6353 -0.102591 -0.720618
36 1 30.5899 0.408822 -0.675181
37 1 30.7726 0.413409 0.225078
38 1 31.6271 -0.00416081 -0.184029
39 1 31.5598 0.941322 -0.373446
40 1 32.141 1.07784 0.241115
41 1 32.7787 0.46547 -0.0689913
42 1 33.5545 0.617244 0.568503
43 1 34.5632 0.71902 0.498105
44 1 35.4725 1.14214 0.679178
45 1 36.3569 0.710864 0.48835
46 1 36.048 0.323226 1.26736
47 1 36.6236 1.01063 1.64152
48 1 35.7869 1.16303 2.13216
49 1 36.3025 0.267506 2.38066
50 1 35.5957 0.371017 2.99265
ITEM: TIMESTEP
2000
ITEM: NUMBER OF ATOMS
50
ITEM: BOX BOUNDS pp pp pp
-5.0000000000000000e+01 5.0000000000000000e+01
-5.0000000000000000e+01 5.0000000000000000e+01
-5.0000000000000000e+01 5.0000000000000000e+01
ITEM: ATOMS id type x y z
1 1 19.6991 2.09341 -0.274845
2 1 20.0018 1.31698 0.456822
3 1 20.8338 1.49565 -0.000911555
4 1 20.6419 0.688253 -0.0557574
5 1 19.9124 1.15503 -0.545383
6 1 20.2103 0.322609 -1.152
7 1 19.9857 -0.428473 -0.448895
8 1 19.8606 -0.0250044 0.34838
9 1 18.9523 -0.35981 0.239479
10 1 18.2277 0.166544 0.0995741
11 1 18.0401 -0.114267 -0.842414
12 1 18.9241 0.418622 -0.602928
13 1 18.9778 0.0822046 -1.57581
14 1 18.9113 -0.864138 -1.1651
15 1 19.3475 -1.24945 -0.402968
16 1 19.7003 -1.15908 0.520979
17 1 20.6931 -0.625394 0.332717
18 1 21.4653 -0.0723252 0.0190625
19 1 22.4789 -0.183303 0.550181
20 1 22.2277 -0.595677 -0.507653
21 1 21.6348 -1.06608 0.291531
22 1 21.2197 -0.807522 -0.567527
23 1 21.4315 -0.0375014 -1.01642
24 1 20.929 -0.265776 -1.76423
25 1 20.8831 0.206868 -2.64511
26 1 21.9157 0.000578998 -2.23264
27 1 22.5664 -0.476747 -1.53885
28 1 22.7644 -1.42561 -1.21425
29 1 22.9642 -1.20029 -0.038083
30 1 23.3701 -0.426697 -0.173822
31 1 23.6034 0.456639 -0.62504
32 1 24.1337 -0.327304 -1.25999
33 1 23.8363 -1.14477 -0.785615
34 1 24.5834 -1.02224 -0.307965
35 1 25.2432 -0.387093 0.226952
36 1 24.2987 -0.0555336 0.0117682
37 1 24.6014 0.825947 0.203649
38 1 24.3551 0.276621 0.990695
39 1 24.4874 -0.670242 0.81745
40 1 24.0112 -0.655819 1.35547
41 1 23.8302 0.150436 1.91041
42 1 24.4956 -0.427678 2.23254
43 1 25.1098 -0.279124 1.70668
44 1 25.1424 0.219307 2.63285
45 1 24.3357 0.781496 2.57809
46 1 23.9072 1.26481 1.85559
47 1 23.7702 1.5767 0.854882
48 1 23.6389 1.4073 -0.0226604
49 1 23.4718 0.506403 0.46568
50 1 22.8734 0.940552 1.06542
ITEM: TIMESTEP
3000
ITEM: NUMBER OF ATOMS
50
ITEM: BOX BOUNDS pp pp pp
-5.0000000000000000e+01 5.0000000000000000e+01
-5.0000000000000000e+01 5.0000000000000000e+01
-5.0000000000000000e+01 5.0000000000000000e+01
ITEM: ATOMS id type x y z
1 1 24.3951 -0.818961 -0.60419
2 1 25.0117 -0.137089 -0.861093
3 1 24.5383 0.149553 -1.8485
4 1 24.1635 0.89668 -2.04799
5 1 24.1405 1.143 -1.10233
6 1 22.9872 0.848265 -0.580828
7 1 22.8107 1.57466 -1.042
8 1 21.9094 1.43078 -1.34626
9 1 20.9957 1.39634 -1.4198
10 1 20.8239 0.346959 -1.30491
11 1 20.0813 -0.549702 -1.04037
12 1 20.2526 -0.370852 -2.03337
13 1 21.18 -0.925391 -2.2326
14 1 21.49 -0.589632 -1.24133
15 1 20.9079 -0.675872 -0.482268
16 1 21.384 0.159123 0.0187882
17 1 21.9649 0.337091 -0.990281
18 1 21.814 1.18869 -0.348022
19 1 22.2467 0.679522 0.419808
20 1 22.4974 -0.23426 0.337361
21 1 21.9378 -0.850999 -0.353351
22 1 23.0675 -1.02135 -0.450735
23 1 23.6538 -0.883146 -1.4556
24 1 23.4652 0.244021 -1.68232
25 1 23.7198 0.0439507 -0.682806
26 1 23.319 0.144861 0.126888
27 1 23.9511 0.0164918 0.733051
28 1 24.6509 0.427467 0.51157
29 1 24.3987 1.28395 0.0812999
30 1 23.6128 1.16268 0.96674
31 1 23.1389 1.5124 1.77891
32 1 22.6795 1.65385 0.927599
33 1 22.4065 0.764071 1.46444
34 1 21.6245 0.456895 2.18625
35 1 20.5018 0.479221 1.97678
36 1 20.6189 -0.454636 1.42372
37 1 20.9533 0.407201 1.00428
38 1 21.639 -0.195301 1.1356
39 1 22.0008 -1.05438 1.11904
40 1 22.4299 -1.61234 0.563238
41 1 21.4836 -2.08153 0.24601
42 1 20.5422 -1.72531 0.209307
43 1 21.2015 -1.04916 0.580755
44 1 20.8365 -1.52349 1.21311
45 1 19.903 -1.73917 1.17498
46 1 19.9203 -1.01995 1.86877
47 1 19.6291 -0.245331 1.85553
48 1 19.8389 0.0201627 1.03357
49 1 20.3205 0.245961 0.0441488
50 1 19.4599 0.744027 0.149414
ITEM: TIMESTEP
4000
ITEM: NUMBER OF ATOMS
50
ITEM: BOX BOUNDS pp pp pp
-5.0000000000000000e+01 5.0000000000000000e+01
-5.0000000000000000e+01 5.0000000000000000e+01
-5.0000000000000000e+01 5.0000000000000000e+01
ITEM: ATOMS id type x y z
1 1 24.9424 -3.5803 0.63032
2 1 24.816 -2.51415 0.612809
3 1 24.8555 -1.69183 1.12912
4 1 24.091 -1.21415 0.668848
5 1 24.4196 -0.228873 0.432922
6 1 23.8807 0.522633 0.325889
7 1 23.7874 0.778522 1.24048
8 1 22.9873 0.179143 0.830408
9 1 23.513 -0.546642 0.166746
10 1 23.8244 -0.334826 -0.638844
11 1 23.2876 -0.156844 -1.34702
12 1 23.8607 0.630577 -1.68186
13 1 23.8204 0.423273 -2.56815
14 1 23.5164 -0.431544 -2.26366
15 1 22.6767 -0.735849 -2.08549
16 1 23.261 -1.37934 -1.68763
17 1 22.6404 -1.58697 -1.12997
18 1 22.7637 -0.703812 -0.635801
19 1 22.9593 0.357682 -0.37508
20 1 23.2241 1.22512 -0.193642
21 1 22.0817 0.857323 0.0359926
22 1 21.8545 0.19548 0.597132
23 1 21.7035 0.937877 1.2826
24 1 22.309 1.63463 1.9341
25 1 21.4047 2.08922 2.62421
26 1 20.9086 1.49524 1.91511
27 1 20.1157 2.16305 1.64939
28 1 19.8332 1.12534 1.33019
29 1 19.781 0.12359 1.52055
30 1 19.7321 0.45555 0.573985
31 1 19.0053 0.327089 -0.453216
32 1 19.1033 -0.640845 -0.390463
33 1 19.9084 -0.588799 0.148238
34 1 20.6151 -0.247145 0.201997
35 1 21.0596 0.351944 -0.606155
36 1 20.1328 0.45054 -0.976629
37 1 20.2331 0.809194 -0.183773
38 1 21.0464 1.26079 -0.000108311
39 1 20.8538 0.663379 0.77963
40 1 20.8534 -0.0928666 1.22014
41 1 21.6757 -0.888515 1.13777
42 1 21.3979 -1.73246 1.27561
43 1 21.2102 -1.3727 0.322748
44 1 21.4125 -1.0973 -0.570193
45 1 21.1559 -1.35224 -1.41594
46 1 21.8605 -0.65527 -1.40376
47 1 22.1821 0.1183 -1.09889
48 1 22.4048 0.910997 -0.876231
49 1 22.2481 2.00433 -0.806533
50 1 21.2894 1.68245 -1.1979
ITEM: TIMESTEP
5000
ITEM: NUMBER OF ATOMS
50
ITEM: BOX BOUNDS pp pp pp
-5.0000000000000000e+01 5.0000000000000000e+01
-5.0000000000000000e+01 5.0000000000000000e+01
-5.0000000000000000e+01 5.0000000000000000e+01
ITEM: ATOMS id type x y z
1 1 24.8358 -1.46425 3.38944
2 1 23.9663 -1.64578 3.95411
3 1 23.4895 -1.23658 3.12131
4 1 23.8977 -1.96218 2.70657
5 1 23.3417 -2.54853 2.03321
6 1 23.3287 -1.96432 1.11046
7 1 22.533 -1.78612 1.55869
8 1 23.1088 -0.976868 1.4722
9 1 23.983 -1.17215 1.8223
10 1 24.0645 -0.264622 1.29183
11 1 23.2847 0.0138264 1.23174
12 1 23.5574 0.954639 1.72672
13 1 24.2269 0.853997 0.933476
14 1 24.4329 0.410218 0.0794994
15 1 23.6504 0.274771 -0.611177
16 1 24.4131 -0.530155 -0.259823
17 1 23.4299 -1.07304 0.0732308
18 1 22.9292 -0.592088 -0.584813
19 1 22.5722 -0.380248 0.37347
20 1 22.0532 -1.15164 0.308862
21 1 21.1537 -0.72894 0.645117
22 1 20.4244 -0.629698 -0.0369288
23 1 20.9541 0.102754 -0.252944
24 1 20.5016 0.219777 0.727645
25 1 20.2057 -0.188284 1.65423
26 1 19.6725 -0.251314 0.720058
27 1 19.5749 0.408669 0.0295548
28 1 19.8706 -0.297756 -0.814001
29 1 19.0766 -0.559286 -0.419053
30 1 18.9535 0.374 -1.01671
31 1 19.0529 0.740953 -2.08667
32 1 19.8341 0.495087 -2.92268
33 1 20.695 0.431514 -2.32639
34 1 21.6227 0.356499 -1.9971
35 1 22.6639 0.292489 -1.83427
36 1 22.3378 -0.332337 -2.63736
37 1 22.1901 0.693025 -2.79716
38 1 21.7651 1.73797 -2.57708
39 1 21.0794 2.06236 -1.87964
40 1 20.5225 2.74279 -1.619
41 1 20.2701 2.0519 -0.878469
42 1 20.635 1.20569 -0.207874
43 1 21.1522 0.890603 -1.04555
44 1 21.288 -0.192615 -1.22794
45 1 22.0032 -0.0481385 -0.800166
46 1 22.7158 0.443293 -0.814548
47 1 22.1203 1.022 -0.27017
48 1 23.1436 1.51264 -0.269223
49 1 22.8848 0.519581 0.368158
50 1 23.0372 1.1659 0.854838
ITEM: TIMESTEP
6000
ITEM: NUMBER OF ATOMS
50
ITEM: BOX BOUNDS pp pp pp
-5.0000000000000000e+01 5.0000000000000000e+01
-5.0000000000000000e+01 5.0000000000000000e+01
-5.0000000000000000e+01 5.0000000000000000e+01
ITEM: ATOMS id type x y z
1 1 21.9389 -0.214911 2.83989
2 1 21.943 -1.18699 2.78421
3 1 21.4372 -1.68423 2.3842
4 1 21.0251 -1.30607 3.15146
5 1 20.9548 -0.395503 3.21236
6 1 20.7623 0.422982 2.68005
7 1 20.1145 -0.430237 2.55178
8 1 20.0973 -0.462122 1.52209
9 1 20.6503 -0.900262 0.529755
10 1 20.8739 -1.54268 1.20227
11 1 21.1018 -0.816377 1.92298
12 1 22.0561 -0.589858 1.79312
13 1 22.6248 0.161213 1.99527
14 1 23.1859 -0.288414 2.47209
15 1 23.1069 -1.05474 2.04764
16 1 22.991 -0.411237 1.22752
17 1 23.2696 0.500305 1.04925
18 1 23.4481 0.0431979 0.26107
19 1 23.2525 -1.07786 0.368298
20 1 22.7749 -0.347308 -0.33898
21 1 22.0756 -0.435816 0.538728
22 1 22.1285 -1.37409 0.581965
23 1 21.4721 -1.38596 -0.0916503
24 1 21.9526 -0.776505 -0.466412
25 1 22.3624 -0.287606 -1.2758
26 1 23.2419 -0.194333 -1.75498
27 1 23.7913 0.656326 -2.44484
28 1 24.2949 0.736096 -3.03084
29 1 24.4302 -0.123962 -2.62805
30 1 23.5176 -0.511534 -2.82104
31 1 23.3014 0.397244 -3.40801
32 1 22.4867 -0.199971 -3.05145
33 1 22.6945 0.503183 -2.41995
34 1 22.7815 1.6241 -2.51134
35 1 22.0069 1.7842 -2.16749
36 1 21.0447 1.51649 -2.23533
37 1 21.2096 1.78441 -1.15955
38 1 21.18 0.871332 -0.781604
39 1 21.3624 -0.0271693 -1.20119
40 1 21.5778 0.321696 -2.07071
41 1 21.9215 0.843139 -1.54267
42 1 22.3672 1.50747 -1.24382
43 1 22.9396 1.29077 -0.453975
44 1 22.0969 0.581416 -0.357635
45 1 21.445 0.801481 0.262078
46 1 22.0206 0.780637 1.02059
47 1 21.177 0.730745 1.42473
48 1 21.0107 0.0192689 0.824196
49 1 20.6408 -0.0459133 -0.122737
50 1 20.3593 0.193956 -1.06753
ITEM: TIMESTEP
7000
ITEM: NUMBER OF ATOMS
50
ITEM: BOX BOUNDS pp pp pp
-5.0000000000000000e+01 5.0000000000000000e+01
-5.0000000000000000e+01 5.0000000000000000e+01
-5.0000000000000000e+01 5.0000000000000000e+01
ITEM: ATOMS id type x y z
1 1 18.7327 -0.650456 0.740936
2 1 19.5489 -1.17129 0.941691
3 1 19.2587 -1.5854 0.11218
4 1 19.2501 -1.78937 -0.944371
5 1 18.5642 -1.10246 -0.781876
6 1 19.2048 -0.319879 -0.361047
7 1 18.6676 -0.0897345 -1.29639
8 1 19.2463 0.458321 -1.12439
9 1 19.1636 1.19409 -0.540519
10 1 18.6006 0.613345 0.196042
11 1 19.6099 1.21208 0.481424
12 1 19.9726 0.465587 -0.188559
13 1 20.3806 -0.0151424 -0.601317
14 1 21.126 -0.0748562 0.0354436
15 1 20.7673 -0.438144 0.899236
16 1 20.096 0.300848 0.891045
17 1 20.4705 0.196531 1.84721
18 1 21.2471 0.829423 1.69404
19 1 21.7499 0.317518 2.3632
20 1 21.7215 -0.323483 1.51862
21 1 21.8349 -1.19421 1.15558
22 1 22.6281 -1.36334 0.682033
23 1 23.3342 -1.0382 0.145715
24 1 23.8545 -0.474941 0.824299
25 1 23.0159 0.104797 0.6151
26 1 23.7513 0.703585 0.776254
27 1 24.5705 0.571868 1.30488
28 1 24.6423 -0.0229108 0.507129
29 1 25.4794 0.561366 0.374326
30 1 24.6088 1.18013 0.359844
31 1 23.5697 1.15935 -0.0959051
32 1 23.5159 0.813894 -1.18381
33 1 23.7419 -0.0530565 -1.79135
34 1 24.5147 0.753115 -1.75007
35 1 24.5817 0.381077 -0.911107
36 1 24.2942 -0.525929 -0.388462
37 1 23.4876 -0.96302 -1.01386
38 1 23.5036 -1.61154 -1.58286
39 1 23.0894 -2.37067 -0.946589
40 1 22.5084 -1.7538 -0.571892
41 1 22.1752 -0.875108 -0.823341
42 1 22.4195 -1.32791 -1.56686
43 1 22.7689 -0.3646 -1.50308
44 1 23.2482 0.0075186 -0.600196
45 1 22.2468 0.181312 -0.242487
46 1 22.5827 1.02365 -0.247647
47 1 22.9919 1.91528 0.371865
48 1 23.6777 2.46781 -0.100569
49 1 24.2591 2.37369 0.75868
50 1 24.2242 1.71327 1.56177
ITEM: TIMESTEP
8000
ITEM: NUMBER OF ATOMS
50
ITEM: BOX BOUNDS pp pp pp
-5.0000000000000000e+01 5.0000000000000000e+01
-5.0000000000000000e+01 5.0000000000000000e+01
-5.0000000000000000e+01 5.0000000000000000e+01
ITEM: ATOMS id type x y z
1 1 22.2906 -1.37571 -3.18546
2 1 21.4455 -0.8753 -2.71333
3 1 21.4792 -0.426683 -2.04132
4 1 22.4205 0.129902 -2.52564
5 1 21.7325 0.493008 -1.97218
6 1 21.7065 0.765908 -2.79051
7 1 20.7297 0.563341 -2.42106
8 1 20.4899 -0.198396 -1.79395
9 1 19.9867 0.0998873 -0.985119
10 1 18.8412 0.188029 -0.994196
11 1 19.2752 0.323696 -1.86663
12 1 19.4273 1.28893 -1.28681
13 1 20.0905 1.22907 -1.86465
14 1 20.5491 1.37668 -0.979539
15 1 21.4669 1.11909 -1.25931
16 1 21.141 0.31685 -0.686147
17 1 20.6215 0.133498 0.0544625
18 1 20.0006 -0.720358 -0.0206558
19 1 20.4465 -0.882756 0.851576
20 1 21.0742 -1.73776 0.935824
21 1 21.7989 -1.87036 1.5598
22 1 22.771 -1.33529 1.70029
23 1 21.7981 -0.743519 1.88616
24 1 22.5583 -0.586697 2.43441
25 1 21.8169 0.349996 2.22194
26 1 22.691 0.509347 1.85734
27 1 23.402 -0.14404 1.66423
28 1 23.3005 0.274442 2.70622
29 1 23.4119 1.1494 2.1754
30 1 24.1589 0.85374 1.51643
31 1 25.1132 0.480612 1.00699
32 1 25.1326 0.296471 2.08802
33 1 25.7174 -0.368933 1.52904
34 1 25.2894 -1.45941 1.52916
35 1 24.5346 -1.0282 1.77488
36 1 24.4628 -0.47004 1.14782
37 1 23.6739 0.0397036 0.599171
38 1 22.8323 0.188665 0.672296
39 1 21.8633 0.175939 1.16796
40 1 22.1131 -0.771884 0.81906
41 1 21.7603 -0.472563 -0.106137
42 1 21.1596 -1.36553 -0.257661
43 1 21.2751 -0.667859 -1.05411
44 1 22.1162 -1.08034 -1.2071
45 1 22.74 -0.192142 -0.95391
46 1 22.4253 0.706721 -1.18996
47 1 22.2361 0.518307 -0.20817
48 1 21.5877 1.31671 -0.261773
49 1 21.2204 2.18377 0.311575
50 1 22.324 1.70206 0.415283
ITEM: TIMESTEP
9000
ITEM: NUMBER OF ATOMS
50
ITEM: BOX BOUNDS pp pp pp
-5.0000000000000000e+01 5.0000000000000000e+01
-5.0000000000000000e+01 5.0000000000000000e+01
-5.0000000000000000e+01 5.0000000000000000e+01
ITEM: ATOMS id type x y z
1 1 24.3619 -0.806641 -0.773877
2 1 23.6301 -0.905668 -1.29229
3 1 23.5121 -1.63585 -1.78672
4 1 22.7825 -1.4515 -1.17897
5 1 22.8435 -2.51233 -1.47959
6 1 23.482 -2.34144 -0.895059
7 1 22.6447 -2.13459 -0.330198
8 1 23.2573 -1.41479 -0.130806
9 1 23.234 -0.821604 0.799046
10 1 22.329 -0.497233 0.810342
11 1 22.2953 -1.04524 0.203831
12 1 21.5894 -1.06611 -0.368362
13 1 21.8432 -0.284689 -1.23202
14 1 21.2666 0.416656 -1.24957
15 1 21.6291 1.35535 -1.0615
16 1 22.3749 1.2256 -0.565494
17 1 21.7989 0.95986 0.232395
18 1 21.2591 0.415867 0.668008
19 1 20.8417 -0.179239 -0.150748
20 1 19.7856 0.197498 0.274151
21 1 19.8552 -0.331102 -0.733369
22 1 20.2572 0.630724 -0.969536
23 1 20.464 1.59545 -1.22586
24 1 20.5547 2.33915 -0.366889
25 1 20.6333 1.44594 -0.232957
26 1 20.5232 0.981818 0.485368
27 1 19.8642 0.815356 1.22856
28 1 20.4281 -0.209324 1.21055
29 1 19.9483 -0.846315 0.843597
30 1 19.3664 -1.73479 0.533475
31 1 19.9709 -2.09429 -0.0838338
32 1 20.724 -1.51351 0.364312
33 1 21.3735 -0.996972 0.851706
34 1 21.8562 -0.792374 1.7841
35 1 21.5207 -0.0635085 1.71538
36 1 22.3178 0.13893 2.01355
37 1 23.0743 0.134658 1.35424
38 1 22.5292 1.02988 1.33604
39 1 22.8723 1.23794 0.490783
40 1 22.6989 0.291774 0.318476
41 1 22.4419 0.210286 -0.571599
42 1 22.8727 -0.0525543 -1.4292
43 1 23.9049 0.136047 -1.18691
44 1 23.3175 0.836039 -0.716667
45 1 23.6474 0.323229 0.205623
46 1 23.8569 0.925437 0.847272
47 1 24.5242 1.66672 0.433684
48 1 23.9059 2.18292 -0.143456
49 1 23.4903 1.93943 0.781989
50 1 22.945 2.29911 0.368991
ITEM: TIMESTEP
10000
ITEM: NUMBER OF ATOMS
50
ITEM: BOX BOUNDS pp pp pp
-5.0000000000000000e+01 5.0000000000000000e+01
-5.0000000000000000e+01 5.0000000000000000e+01
-5.0000000000000000e+01 5.0000000000000000e+01
ITEM: ATOMS id type x y z
1 1 22.6023 -1.17944 0.847977
2 1 22.6025 -1.40026 1.78817
3 1 22.1193 -1.64892 2.70763
4 1 21.5573 -0.798909 2.64102
5 1 21.7294 -0.81873 1.66727
6 1 22.5274 -0.210637 1.97995
7 1 21.9169 0.626273 1.8596
8 1 21.3624 0.0302171 1.43265
9 1 21.9725 -0.322137 0.735066
10 1 21.3037 -0.010834 0.220312
11 1 22.0422 0.364424 -0.359499
12 1 22.5086 0.519901 -1.15725
13 1 23.4936 0.395645 -0.980009
14 1 22.9596 1.25296 -0.46836
15 1 22.5578 2.10204 -0.518706
16 1 21.9973 1.46723 -0.804948
17 1 21.1579 1.81865 -0.69196
18 1 20.5844 1.60675 -1.32072
19 1 21.3571 1.97672 -1.77349
20 1 21.3276 1.03911 -1.89553
21 1 21.5936 0.0543665 -1.30745
22 1 21.8593 -0.941657 -1.62202
23 1 21.7566 -1.68739 -2.0767
24 1 21.316 -2.094 -1.38638
25 1 20.7486 -1.34898 -1.73415
26 1 20.946 -0.311358 -2.19762
27 1 21.9724 -0.335781 -2.35733
28 1 22.8371 -0.0901174 -2.11139
29 1 22.8376 -1.14452 -2.03039
30 1 22.8733 -0.632535 -1.17362
31 1 22.408 -1.51963 -0.903093
32 1 21.5958 -0.937485 -0.408039
33 1 20.7424 -0.806985 -0.791443
34 1 19.985 -1.27928 -1.02704
35 1 20.32 -0.0153199 -1.37595
36 1 20.8219 0.734546 -0.904509
37 1 20.1905 0.625674 -0.0265988
38 1 21.0695 0.957042 0.126679
39 1 21.7816 1.8106 0.353369
40 1 22.4107 0.877127 0.418557
41 1 22.9645 0.44023 0.264323
42 1 23.8563 -0.0761281 0.229172
43 1 24.2864 0.837022 0.530859
44 1 23.5871 1.18137 1.22541
45 1 23.0919 1.01617 2.17587
46 1 23.0186 0.374484 1.40942
47 1 23.73 -0.0389258 1.90714
48 1 23.3231 -0.865625 2.323
49 1 22.7224 -0.726805 2.94678
50 1 22.1741 -0.866178 3.61397
ITEM: TIMESTEP
11000
ITEM: NUMBER OF ATOMS
50
ITEM: BOX BOUNDS pp pp pp
-5.0000000000000000e+01 5.0000000000000000e+01
-5.0000000000000000e+01 5.0000000000000000e+01
-5.0000000000000000e+01 5.0000000000000000e+01
ITEM: ATOMS id type x y z
1 1 20.9272 -1.70225 1.38301
2 1 20.8697 -1.72982 0.316574
3 1 20.1986 -1.22038 -0.258626
4 1 20.1145 -1.08456 0.741287
5 1 19.9587 -0.286853 0.707902
6 1 20.2973 0.351159 0.160532
7 1 20.9119 0.420628 0.91322
8 1 21.4087 0.0997304 -0.00519393
9 1 21.1889 -0.73547 0.444362
10 1 21.6619 -1.3242 -0.368354
11 1 22.6451 -1.26744 -0.455628
12 1 22.5925 -0.518576 -0.00376924
13 1 22.4082 0.34763 0.303272
14 1 22.0552 0.407263 1.34747
15 1 22.5856 1.23999 1.15635
16 1 23.1269 0.619019 1.30292
17 1 23.3197 0.880739 0.307183
18 1 22.9164 1.32569 -0.651775
19 1 23.0854 0.509003 -0.59972
20 1 23.4263 -0.10005 -1.2033
21 1 23.1554 -0.0683927 -2.16053
22 1 24.0313 0.0238369 -2.37403
23 1 24.6451 0.369517 -1.64788
24 1 24.5943 0.211256 -0.60323
25 1 24.8416 0.0378176 0.441919
26 1 24.0964 0.140317 1.00763
27 1 23.3944 -0.420734 0.762097
28 1 23.5948 -0.754039 -0.128535
29 1 23.5285 -1.11713 -1.05236
30 1 23.2584 -1.03991 -1.88015
31 1 22.4971 -0.679541 -1.37393
32 1 21.6959 -1.37535 -1.57966
33 1 20.8825 -1.75391 -2.12137
34 1 20.2554 -1.30089 -2.52471
35 1 21.2017 -0.881942 -2.52011
36 1 21.8075 -0.232297 -2.08252
37 1 21.9979 0.393568 -1.27694
38 1 22.7999 0.827027 -1.65459
39 1 22.1317 1.36285 -1.78324
40 1 22.0311 1.93785 -0.969639
41 1 22.0717 1.88953 -0.135223
42 1 21.7783 1.12651 -0.378915
43 1 21.7216 1.15944 0.575474
44 1 21.4442 1.66647 1.34319
45 1 20.9646 1.16088 2.02917
46 1 20.1788 0.44293 1.71167
47 1 20.216 0.251652 2.85961
48 1 20.3879 -0.477745 3.37367
49 1 20.593 0.0436666 4.43293
50 1 21.0044 0.825531 4.17249
ITEM: TIMESTEP
12000
ITEM: NUMBER OF ATOMS
50
ITEM: BOX BOUNDS pp pp pp
-5.0000000000000000e+01 5.0000000000000000e+01
-5.0000000000000000e+01 5.0000000000000000e+01
-5.0000000000000000e+01 5.0000000000000000e+01
ITEM: ATOMS id type x y z
1 1 19.7024 -0.858595 -0.888009
2 1 20.5353 -0.615123 -1.12416
3 1 21.493 -0.150946 -0.971169
4 1 22.1346 -0.864416 -1.16163
5 1 21.2802 -0.949364 -0.377553
6 1 21.3972 0.0375453 0.0654434
7 1 21.8772 -0.0686324 1.01832
8 1 22.3924 -0.608975 0.51837
9 1 21.2394 -0.990452 0.701562
10 1 20.3627 -0.52714 0.402312
11 1 20.2936 -1.40076 -0.241166
12 1 20.0388 -1.65634 0.679926
13 1 20.4658 -1.18342 1.39669
14 1 21.0326 -0.587077 1.83371
15 1 21.7332 -1.34562 1.54269
16 1 22.3372 -0.828573 1.67864
17 1 22.9255 -0.91915 2.49492
18 1 23.4164 -0.146546 2.42907
19 1 22.6256 0.126729 2.1708
20 1 22.862 0.0519684 1.23297
21 1 23.603 0.510781 1.64438
22 1 24.5964 0.921155 1.84021
23 1 24.7176 0.949387 0.800762
24 1 24.7914 1.13427 -0.103956
25 1 25.088 0.181083 0.0529584
26 1 24.2918 -0.140741 0.00498028
27 1 23.8393 -0.304476 0.671764
28 1 23.4334 -0.763753 1.55632
29 1 23.492 -1.52193 1.00745
30 1 22.7936 -1.48216 0.376281
31 1 22.9011 -1.0885 -0.456774
32 1 22.7936 -0.231682 -0.55417
33 1 23.5704 0.282217 -0.731851
34 1 23.9888 0.683133 -1.36037
35 1 23.8584 1.35102 -0.492709
36 1 23.7085 0.953875 0.452732
37 1 22.8557 0.85202 0.577479
38 1 22.8139 1.6553 0.222248
39 1 22.6176 1.33805 -0.863957
40 1 21.764 0.954034 -0.505831
41 1 21.0212 1.28227 0.00681995
42 1 21.2597 1.95631 -0.573153
43 1 20.3097 1.94751 -0.539338
44 1 20.1171 1.57297 -1.52815
45 1 20.3315 0.838035 -0.896563
46 1 20.3774 0.380046 -1.76768
47 1 19.4084 -0.261702 -1.94417
48 1 19.7254 -0.625819 -2.9068
49 1 19.6211 0.299644 -3.55521
50 1 18.665 -0.137461 -3.83544
ITEM: TIMESTEP
13000
ITEM: NUMBER OF ATOMS
50
ITEM: BOX BOUNDS pp pp pp
-5.0000000000000000e+01 5.0000000000000000e+01
-5.0000000000000000e+01 5.0000000000000000e+01
-5.0000000000000000e+01 5.0000000000000000e+01
ITEM: ATOMS id type x y z
1 1 22.3083 -0.509098 -1.8872
2 1 22.9475 -1.22448 -1.39688
3 1 22.6071 -0.321447 -0.875619
4 1 22.0327 0.660821 -1.2769
5 1 21.663 1.40325 -0.657269
6 1 21.0218 1.26611 -1.3884
7 1 20.939 0.389189 -0.691508
8 1 21.4265 -0.234935 -0.299414
9 1 21.9358 -1.0474 -0.399904
10 1 21.0644 -1.23005 -0.131359
11 1 21.5996 -2.08463 -0.379967
12 1 22.1813 -2.40694 0.531632
13 1 21.8211 -1.38261 0.514922
14 1 21.7639 -1.56063 1.50931
15 1 20.8626 -1.48225 1.13187
16 1 20.621 -1.70128 2.08305
17 1 20.231 -0.9196 2.43454
18 1 20.7714 -0.30564 2.82728
19 1 21.5824 -0.00634503 2.79063
20 1 22.2714 -0.718462 3.05825
21 1 22.8997 0.03862 2.78453
22 1 22.9676 -0.451579 1.99936
23 1 22.392 0.306932 1.93686
24 1 21.7571 0.884747 1.32745
25 1 21.0309 0.449119 0.847202
26 1 21.4742 -0.542827 1.04515
27 1 21.3118 -0.187325 1.71809
28 1 21.598 -0.809611 2.23419
29 1 22.5948 -1.38937 2.2435
30 1 22.9102 -1.83034 1.8204
31 1 22.7453 -1.17191 1.24003
32 1 22.3233 -0.275599 0.426587
33 1 22.2513 0.66512 0.214149
34 1 22.2381 1.48631 0.611268
35 1 21.3195 1.39154 0.340043
36 1 21.4078 1.96961 1.07538
37 1 21.9578 2.6941 0.421492
38 1 22.4651 2.18572 -0.481981
39 1 22.0303 2.2181 -1.37793
40 1 22.0964 2.38073 -2.3459
41 1 21.6846 1.50084 -2.18604
42 1 21.8415 0.873512 -2.75549
43 1 22.5605 0.545753 -2.14665
44 1 22.8458 1.39157 -2.17029
45 1 23.6102 1.14156 -1.96095
46 1 23.8338 0.305985 -2.6542
47 1 23.3444 -0.197514 -2.3852
48 1 23.7286 -0.760674 -3.10619
49 1 22.9119 -1.11959 -2.79112
50 1 22.716 -0.277079 -3.42082
ITEM: TIMESTEP
14000
ITEM: NUMBER OF ATOMS
50
ITEM: BOX BOUNDS pp pp pp
-5.0000000000000000e+01 5.0000000000000000e+01
-5.0000000000000000e+01 5.0000000000000000e+01
-5.0000000000000000e+01 5.0000000000000000e+01
ITEM: ATOMS id type x y z
1 1 24.2408 -1.50486 0.195316
2 1 24.05 -0.709052 0.171775
3 1 23.367 -0.00448374 0.24758
4 1 22.8495 0.772952 -0.151227
5 1 22.6174 0.36792 -1.12203
6 1 23.177 1.08416 -1.26553
7 1 23.5235 0.0625632 -1.68876
8 1 23.7952 -0.0744421 -0.750427
9 1 23.0108 -0.550749 -0.735729
10 1 22.9782 -0.929629 0.241355
11 1 22.4071 -1.64234 0.482264
12 1 21.8081 -2.43104 0.100771
13 1 22.4482 -1.87298 -0.49466
14 1 21.4913 -1.97373 -0.889373
15 1 21.5214 -1.44063 -0.0210898
16 1 20.5716 -1.22025 -0.300383
17 1 19.8624 -1.02462 -1.08786
18 1 19.0132 -0.804543 -0.758066
19 1 19.1195 -0.554604 0.158354
20 1 18.6021 -0.127719 0.766548
21 1 19.1485 0.573485 0.138522
22 1 19.745 0.141904 -0.69111
23 1 20.3603 0.626878 -1.39493
24 1 20.7435 -0.221246 -0.840711
25 1 20.6071 -0.16391 0.0720823
26 1 21.4673 -0.687242 0.695666
27 1 21.1742 -0.333189 1.6582
28 1 20.7333 0.606952 1.57957
29 1 19.5885 0.485277 1.638
30 1 20.0795 0.455275 0.741684
31 1 20.805 1.13088 0.394115
32 1 21.3251 0.35899 0.493822
33 1 21.7731 0.616838 1.32598
34 1 22.2782 0.240317 0.610644
35 1 22.0308 -0.359825 -0.150255
36 1 21.6436 0.628765 -0.359111
37 1 21.9717 1.29145 0.309416
38 1 22.4096 1.47712 -0.718622
39 1 23.0877 2.17029 -0.745771
40 1 24.0289 2.03834 -0.985729
41 1 24.8052 1.94483 -0.687245
42 1 24.6783 1.83149 -1.84291
43 1 24.648 0.987201 -1.21369
44 1 24.8779 0.206182 -0.439051
45 1 24.2315 0.569442 0.203189
46 1 23.9174 0.21396 1.01746
47 1 23.0855 0.630681 1.31536
48 1 22.9579 -0.418666 1.13437
49 1 22.1313 -0.91877 1.56281
50 1 21.7116 -1.54565 2.07944
ITEM: TIMESTEP
15000
ITEM: NUMBER OF ATOMS
50
ITEM: BOX BOUNDS pp pp pp
-5.0000000000000000e+01 5.0000000000000000e+01
-5.0000000000000000e+01 5.0000000000000000e+01
-5.0000000000000000e+01 5.0000000000000000e+01
ITEM: ATOMS id type x y z
1 1 22.3834 0.337032 1.76538
2 1 21.8661 0.0972712 0.915136
3 1 21.7193 -0.724886 0.224389
4 1 22.5625 -1.02885 0.32648
5 1 23.2757 -1.42035 0.0554103
6 1 23.5236 -0.742071 0.740134
7 1 23.1646 0.0131447 1.2281
8 1 22.7273 -0.665474 1.48059
9 1 22.7794 -1.67505 1.0853
10 1 23.852 -1.73227 1.15793
11 1 23.9616 -2.22865 0.10252
12 1 23.2996 -2.47862 -0.576343
13 1 23.0147 -1.46634 -0.95101
14 1 22.3859 -2.12457 -1.15336
15 1 22.1668 -2.78243 -0.475803
16 1 21.9642 -1.74451 -0.368395
17 1 21.1577 -1.53791 -0.319143
18 1 21.1773 -0.555622 -0.830734
19 1 21.9542 -1.16258 -1.2079
20 1 21.5523 -0.453568 -1.89386
21 1 22.3851 -0.260629 -2.52831
22 1 21.8954 0.334964 -3.31604
23 1 21.9361 0.837789 -2.6244
24 1 21.239 1.39476 -2.17746
25 1 21.8102 1.61407 -1.45217
26 1 21.3476 0.730974 -1.18246
27 1 21.3112 0.303597 -0.159644
28 1 21.2287 1.30941 -0.360148
29 1 20.8787 2.20524 -0.76707
30 1 21.0341 2.22045 0.274847
31 1 22.0959 2.26227 0.549315
32 1 22.1404 2.7542 -0.332471
33 1 22.0871 1.79169 -0.406669
34 1 23.0595 1.48005 -0.584018
35 1 23.1574 0.648567 -0.987802
36 1 22.4529 -0.103457 -0.72258
37 1 23.2092 -0.119688 -0.0872635
38 1 23.4913 0.76385 0.175517
39 1 22.5083 0.580472 -0.0326675
40 1 21.882 1.2012 0.453325
41 1 21.1564 1.27436 0.680448
42 1 21.1947 0.701656 1.65223
43 1 21.6457 1.54297 1.97698
44 1 20.8833 1.73195 2.48273
45 1 20.3329 0.98257 2.08
46 1 20.1812 0.134176 1.71712
47 1 20.8954 -0.194664 0.992709
48 1 21.695 -0.635678 1.57602
49 1 21.4584 -1.37506 1.21344
50 1 21.4186 -2.03573 0.591672
ITEM: TIMESTEP
16000
ITEM: NUMBER OF ATOMS
50
ITEM: BOX BOUNDS pp pp pp
-5.0000000000000000e+01 5.0000000000000000e+01
-5.0000000000000000e+01 5.0000000000000000e+01
-5.0000000000000000e+01 5.0000000000000000e+01
ITEM: ATOMS id type x y z
1 1 20.0085 -0.0456303 -0.266489
2 1 20.8318 0.416614 -0.458516
3 1 21.0815 0.0281908 0.332177
4 1 21.2186 -0.714502 0.793599
5 1 21.1654 -0.867685 1.71057
6 1 20.3131 -0.662203 1.69272
7 1 19.9863 -0.332515 0.845495
8 1 20.254 -1.1544 0.736401
9 1 21.0734 -1.67144 0.532221
10 1 22.2645 -1.72604 0.735814
11 1 22.6134 -1.15657 0.126821
12 1 22.5943 -1.47208 -0.543285
13 1 23.2983 -2.13761 -0.807967
14 1 23.5584 -1.64144 -0.000960251
15 1 23.498 -1.01115 -0.605169
16 1 23.4702 -0.551822 0.410865
17 1 24.4151 -0.439583 0.840709
18 1 24.5055 -0.644336 -0.0508476
19 1 24.3024 0.168259 -0.318002
20 1 24.9149 0.491013 0.51923
21 1 24.4553 1.60691 0.768747
22 1 23.5008 1.43068 0.842759
23 1 23.2284 0.593686 1.42748
24 1 22.7569 -0.0266649 0.945758
25 1 22.3554 -0.0925567 0.098401
26 1 22.6804 -0.233292 -0.850681
27 1 23.1257 0.698286 -0.588148
28 1 23.6367 0.531621 0.233496
29 1 24.3235 1.15727 -0.294491
30 1 23.8999 1.79081 -0.631721
31 1 23.093 1.72536 -0.108803
32 1 22.3238 1.09085 0.289783
33 1 21.7711 0.621263 1.03669
34 1 21.0409 0.197835 1.33782
35 1 20.4785 0.354823 1.99589
36 1 19.9714 0.757317 1.38732
37 1 20.735 1.22999 1.07129
38 1 20.1399 0.799166 0.331333
39 1 19.9084 1.05089 -0.547821
40 1 20.4005 1.27609 -1.47592
41 1 20.247 1.2038 -2.35647
42 1 21.1251 1.57534 -2.63234
43 1 21.8076 0.877873 -2.88354
44 1 21.9049 0.572114 -2.01657
45 1 21.7728 0.868099 -1.16971
46 1 21.5904 -0.112384 -0.902853
47 1 21.5763 -0.881362 -0.27776
48 1 20.607 -1.27438 -0.429673
49 1 20.8311 -2.12259 -0.545867
50 1 21.8446 -2.14191 -0.279802
ITEM: TIMESTEP
17000
ITEM: NUMBER OF ATOMS
50
ITEM: BOX BOUNDS pp pp pp
-5.0000000000000000e+01 5.0000000000000000e+01
-5.0000000000000000e+01 5.0000000000000000e+01
-5.0000000000000000e+01 5.0000000000000000e+01
ITEM: ATOMS id type x y z
1 1 22.3931 0.84822 -1.79556
2 1 22.2716 1.2361 -0.494016
3 1 21.8282 0.440694 -0.0278446
4 1 21.9962 -0.138163 -0.751571
5 1 22.1919 -0.11296 -1.62586
6 1 21.2073 -0.378313 -1.35094
7 1 21.6724 -1.34253 -1.43131
8 1 22.3588 -1.28698 -0.85079