ITEM: TIMESTEP
0
ITEM: NUMBER OF ATOMS
50
ITEM: BOX BOUNDS pp pp pp
-5.0000000000000000e+01 5.0000000000000000e+01
-5.0000000000000000e+01 5.0000000000000000e+01
-5.0000000000000000e+01 5.0000000000000000e+01
ITEM: ATOMS id type x y z
1 1 -2.31744 0 0
2 1 -1.31926 0 0
3 1 -0.322919 0 0
4 1 0.673256 0 0
5 1 1.66926 0 0
6 1 2.66512 0 0
7 1 3.6608 0 0
8 1 4.65634 0 0
9 1 5.65169 0 0
10 1 6.64691 0 0
11 1 7.64195 0 0
12 1 8.63685 0 0
13 1 9.63156 0 0
14 1 10.6261 0 0
15 1 11.6205 0 0
16 1 12.6148 0 0
17 1 13.6089 0 0
18 1 14.6028 0 0
19 1 15.5966 0 0
20 1 16.5902 0 0
21 1 17.5837 0 0
22 1 18.5767 0 0
23 1 19.57 0 0
24 1 20.562 0 0
25 1 21.5539 0 0
26 1 22.5461 0 0
27 1 23.538 0 0
28 1 24.53 0 0
29 1 25.5233 0 0
30 1 26.5163 0 0
31 1 27.5098 0 0
32 1 28.5034 0 0
33 1 29.4972 0 0
34 1 30.4911 0 0
35 1 31.4852 0 0
36 1 32.4795 0 0
37 1 33.4739 0 0
38 1 34.4684 0 0
39 1 35.4632 0 0
40 1 36.4581 0 0
41 1 37.4531 0 0
42 1 38.4483 0 0
43 1 39.4437 0 0
44 1 40.4392 0 0
45 1 41.4349 0 0
46 1 42.4307 0 0
47 1 43.4267 0 0
48 1 44.4229 0 0
49 1 45.4193 0 0
50 1 46.4174 0 0
ITEM: TIMESTEP
1000
ITEM: NUMBER OF ATOMS
50
ITEM: BOX BOUNDS pp pp pp
-5.0000000000000000e+01 5.0000000000000000e+01
-5.0000000000000000e+01 5.0000000000000000e+01
-5.0000000000000000e+01 5.0000000000000000e+01
ITEM: ATOMS id type x y z
1 1 9.07481 0.39807 0.851501
2 1 8.14438 0.503483 0.541359
3 1 8.72476 0.580783 -0.306994
4 1 9.43114 1.16618 -0.688355
5 1 10.2736 1.72336 -0.165398
6 1 9.73228 1.17913 0.454713
7 1 10.278 0.517315 0.920231
8 1 10.3806 0.343291 -0.0808526
9 1 10.9377 -0.421484 0.355859
10 1 11.3251 0.548689 0.402195
11 1 11.1027 1.18299 -0.334874
12 1 11.904 0.390748 -0.475617
13 1 12.1393 -0.330807 -0.98698
14 1 12.9917 -0.891267 -1.36109
15 1 13.2728 -0.617136 -0.380943
16 1 14.2658 -0.684357 -0.502344
17 1 15.1124 -0.274589 -0.643248
18 1 16.0312 -0.123242 -0.294542
19 1 16.9935 -0.187107 -0.50788
20 1 17.7203 -0.648603 -0.0846715
21 1 18.4639 -0.465433 -0.774536
22 1 18.8858 -0.565014 0.17963
23 1 19.7307 -1.03381 -0.195269
24 1 20.0076 -0.928302 0.70951
25 1 20.5525 -1.61921 0.336596
26 1 21.4994 -1.29663 0.123254
27 1 22.3335 -1.40467 -0.196527
28 1 23.1643 -1.3068 -0.621887
29 1 24.0435 -1.57094 -1.00715
30 1 25.0548 -1.17249 -1.11014
31 1 25.9496 -0.847739 -1.48691
32 1 26.9043 -1.04837 -1.4274
33 1 27.6954 -0.634616 -1.31224
34 1 28.5942 -0.289718 -1.1601
35 1 29.5056 -0.0911517 -0.783922
36 1 30.2004 0.662273 -0.482405
37 1 30.5293 0.625047 0.399729
38 1 31.2529 0.196152 -0.187958
39 1 31.8157 1.07046 -0.307883
40 1 32.3011 0.3044 -0.752349
41 1 32.9854 0.692198 0.13197
42 1 34.0662 0.648756 0.0879119
43 1 34.6364 0.674569 1.03789
44 1 35.1294 1.60085 0.739477
45 1 35.6927 0.713612 0.857585
46 1 36.3402 0.188483 1.40899
47 1 37.1309 0.270048 2.0494
48 1 36.499 1.13277 1.95956
49 1 36.283 0.492013 2.80299
50 1 35.4161 0.647802 2.27011
ITEM: TIMESTEP
2000
ITEM: NUMBER OF ATOMS
50
ITEM: BOX BOUNDS pp pp pp
-5.0000000000000000e+01 5.0000000000000000e+01
-5.0000000000000000e+01 5.0000000000000000e+01
-5.0000000000000000e+01 5.0000000000000000e+01
ITEM: ATOMS id type x y z
1 1 19.2277 1.41989 -0.411558
2 1 20.0363 1.82963 -0.576438
3 1 21.0039 2.07186 -1.14174
4 1 20.8545 0.944598 -0.890058
5 1 20.085 0.615268 -0.754195
6 1 20.1431 0.851098 0.203724
7 1 20.8117 0.943887 0.644448
8 1 21.7086 0.372546 1.15005
9 1 21.6587 -0.636436 1.3763
10 1 21.3972 -0.459461 0.501631
11 1 20.733 -0.0281124 -0.0395363
12 1 19.7146 -0.0613243 0.330127
13 1 18.7847 -0.583668 -0.129164
14 1 19.4613 -1.09837 0.364668
15 1 20.3417 -0.92327 0.433799
16 1 20.3175 -1.48071 -0.363138
17 1 19.8606 -0.679073 -0.758557
18 1 19.1815 0.0918926 -0.941635
19 1 19.3409 0.425851 -2.00652
20 1 20.2262 -0.0480823 -2.48434
21 1 20.703 0.0988503 -1.47859
22 1 20.4273 -0.799697 -1.63322
23 1 20.9337 -0.676486 -0.796139
24 1 21.437 -1.36752 -1.22577
25 1 21.6125 -0.393757 -1.80789
26 1 21.7818 0.265869 -1.00981
27 1 22.0731 0.188297 -0.0789392
28 1 21.956 -0.87118 -0.373821
29 1 22.6149 -1.43485 -0.98571
30 1 22.5236 -0.684409 -1.34585
31 1 23.2345 -0.281288 -0.609583
32 1 22.7569 -1.11184 0.112499
33 1 23.0026 -0.407395 0.696091
34 1 23.8517 -0.780943 0.0705502
35 1 24.7379 -1.23206 0.111016
36 1 25.7208 -1.4588 0.253918
37 1 25.5787 -0.872807 -0.419779
38 1 24.5719 -0.573693 -0.686393
39 1 24.0468 0.267366 -0.220612
40 1 24.3384 -0.0898116 0.75636
41 1 23.9258 -0.79415 1.15432
42 1 24.054 -0.450008 2.12823
43 1 23.7734 0.472021 1.35591
44 1 23.5706 0.71663 0.64918
45 1 24.4706 1.17966 0.995014
46 1 24.5626 1.69396 1.77804
47 1 24.5821 0.730068 2.01343
48 1 23.8215 1.08728 2.2995
49 1 23.4183 1.98696 2.38978
50 1 23.5293 2.02573 1.40039
ITEM: TIMESTEP
3000
ITEM: NUMBER OF ATOMS
50
ITEM: BOX BOUNDS pp pp pp
-5.0000000000000000e+01 5.0000000000000000e+01
-5.0000000000000000e+01 5.0000000000000000e+01
-5.0000000000000000e+01 5.0000000000000000e+01
ITEM: ATOMS id type x y z
1 1 20.3718 2.26567 1.10477
2 1 21.0802 1.9874 0.271956
3 1 21.3789 2.38972 0.940241
4 1 22.2415 2.35046 1.15176
5 1 22.1818 1.86592 0.280356
6 1 23.0839 1.78232 -0.0517882
7 1 23.0835 0.829072 0.299583
8 1 22.4694 0.442705 0.621151
9 1 21.5698 0.866372 0.0656144
10 1 21.5698 -0.027363 -0.108697
11 1 20.9947 -0.533656 0.102307
12 1 20.9159 -1.10836 -0.208407
13 1 21.2029 -0.435465 -1.07357
14 1 22.1625 -0.0777864 -1.20512
15 1 22.5482 0.39886 -0.475134
16 1 22.1867 1.2281 -1.02005
17 1 23.3246 1.2381 -1.24899
18 1 23.1665 0.385097 -1.28639
19 1 23.2562 -0.504834 -1.76448
20 1 23.9795 -0.755631 -1.02857
21 1 23.6784 -0.0854812 -0.374973
22 1 23.592 -0.168714 0.585065
23 1 24.1817 -0.968658 0.775396
24 1 24.5539 -1.82147 1.19657
25 1 24.1049 -2.10054 0.457689
26 1 24.1084 -1.80076 -0.496151
27 1 23.3483 -1.2075 -0.00883239
28 1 23.0988 -1.25373 -0.822654
29 1 23.005 -2.37046 -0.834765
30 1 22.7588 -2.06484 -1.74795
31 1 21.9201 -2.4676 -1.95161
32 1 21.8408 -1.9759 -1.10592
33 1 22.02 -1.107 -1.61208
34 1 21.8261 -0.937083 -0.680683
35 1 21.7708 -1.59083 0.180614
36 1 22.4401 -2.15308 0.177481
37 1 22.3062 -1.48578 1.05167
38 1 22.7027 -0.611907 1.0078
39 1 21.6946 -0.677716 1.41841
40 1 21.5405 0.433793 1.17667
41 1 21.1435 1.29433 1.0915
42 1 21.2419 1.60966 1.97791
43 1 20.2304 0.93927 1.79157
44 1 19.765 0.270204 1.32513
45 1 20.4608 0.416716 0.578419
46 1 20.0194 1.32979 0.691774
47 1 19.4599 2.05786 0.494
48 1 19.5342 1.738 -0.296965
49 1 20.6536 1.6158 -0.799425
50 1 20.7306 0.556942 -0.612187
ITEM: TIMESTEP
4000
ITEM: NUMBER OF ATOMS
50
ITEM: BOX BOUNDS pp pp pp
-5.0000000000000000e+01 5.0000000000000000e+01
-5.0000000000000000e+01 5.0000000000000000e+01
-5.0000000000000000e+01 5.0000000000000000e+01
ITEM: ATOMS id type x y z
1 1 19.9765 0.922821 -1.14462
2 1 19.7074 1.45084 -0.417287
3 1 20.1194 1.73551 0.345989
4 1 21.0811 1.97357 -0.0436769
5 1 20.155 2.44339 -0.612337
6 1 20.9736 2.76604 -0.696425
7 1 21.0664 2.00967 -1.32226
8 1 21.7906 1.50038 -1.08966
9 1 22.139 0.936551 -0.543236
10 1 23.0589 0.778979 -0.77169
11 1 23.1894 1.69803 -1.40732
12 1 23.9548 1.0308 -1.22518
13 1 24.0907 0.211855 -0.6531
14 1 24.2932 -0.660097 -0.267421
15 1 23.3992 -0.261218 -0.120213
16 1 23.6424 0.20805 0.59484
17 1 23.7548 -0.267954 1.59829
18 1 24.293 -1.02651 1.20718
19 1 23.5823 -1.55648 0.730697
20 1 23.0381 -1.75898 1.31365
21 1 22.5275 -1.25508 2.21201
22 1 22.8875 -0.498095 2.49069
23 1 22.0091 -0.179625 2.02193
24 1 21.6165 -0.285162 1.32646
25 1 21.3481 -0.966898 1.67943
26 1 21.7771 -1.42238 1.07715
27 1 21.0923 -2.01 0.408065
28 1 21.8616 -1.9284 -0.226235
29 1 22.6997 -2.11909 -0.490544
30 1 22.7304 -1.26987 -0.676708
31 1 22.5568 -1.40971 0.329952
32 1 22.8668 -0.816481 0.512951
33 1 22.6298 -0.764497 1.23023
34 1 22.8153 0.151444 1.29052
35 1 23.148 1.14888 1.35726
36 1 22.6379 0.991036 0.579501
37 1 22.4107 0.158398 0.324706
38 1 22.3823 -0.239557 -0.586363
39 1 21.8367 -0.683125 0.242581
40 1 21.4513 -0.9579 -0.680575
41 1 22.0118 -0.805826 -1.61583
42 1 22.0239 0.0960989 -1.83172
43 1 20.8648 -0.0130991 -1.68653
44 1 20.0849 0.528276 -2.15841
45 1 19.8177 -0.401862 -1.46349
46 1 20.4491 -0.625768 -0.763543
47 1 21.444 0.0922472 -0.774773
48 1 20.9266 -0.120834 0.100897
49 1 21.2594 0.485801 0.654177
50 1 21.0266 0.985813 -0.36001
ITEM: TIMESTEP
5000
ITEM: NUMBER OF ATOMS
50
ITEM: BOX BOUNDS pp pp pp
-5.0000000000000000e+01 5.0000000000000000e+01
-5.0000000000000000e+01 5.0000000000000000e+01
-5.0000000000000000e+01 5.0000000000000000e+01
ITEM: ATOMS id type x y z
1 1 20.7126 0.542555 -2.97053
2 1 21.1374 0.499596 -2.0203
3 1 21.9847 1.00196 -1.7199
4 1 22.8214 1.08888 -2.24599
5 1 22.5632 2.06285 -1.51435
6 1 23.395 1.64518 -1.44014
7 1 23.9505 2.58413 -1.04173
8 1 24.2077 1.74493 -0.786545
9 1 23.3425 1.91842 -0.322457
10 1 23.7294 2.34653 0.512709
11 1 22.6417 2.30797 0.398481
12 1 21.6272 2.12734 0.58944
13 1 22.1132 1.64588 1.24467
14 1 21.7305 1.58828 1.91729
15 1 21.0054 1.13741 1.66461
16 1 21.6296 0.18675 1.56171
17 1 21.1071 -0.393874 1.87865
18 1 21.2892 -1.23719 2.46871
19 1 20.7974 -1.38519 1.70461
20 1 20.0593 -1.08509 1.09623
21 1 20.5286 -1.52065 0.195628
22 1 21.4268 -1.18304 -0.0393754
23 1 21.918 -0.818408 -0.921854
24 1 22.5374 -1.81217 -0.891126
25 1 23.5234 -1.50102 -1.09035
26 1 23.4738 -2.52946 -0.605742
27 1 23.3532 -2.00591 -0.0341182
28 1 22.2542 -2.28753 0.269181
29 1 22.6855 -1.66466 0.788051
30 1 22.0498 -2.14647 1.3801
31 1 21.6238 -1.65649 1.03392
32 1 22.0278 -0.795443 1.18023
33 1 21.06 -0.667501 0.858736
34 1 20.3627 -0.419263 0.303323
35 1 20.3778 0.469203 0.718868
36 1 21.41 0.356884 0.184253
37 1 22.0215 -0.35733 0.234753
38 1 22.3171 0.406848 0.742913
39 1 23.3684 0.299896 0.282008
40 1 24.0485 -0.443206 0.524201
41 1 23.1142 -0.652331 0.616337
42 1 22.6976 -1.26653 -0.10905
43 1 22.8417 -0.419992 -0.397909
44 1 23.242 0.379609 -0.777887
45 1 22.4392 0.551753 -0.661669
46 1 21.6676 1.39339 -0.697808
47 1 21.1955 0.598554 -0.995927
48 1 20.0522 0.555513 -0.846452
49 1 20.3272 -0.293301 -1.44819
50 1 20.7097 -0.898289 -0.770214
ITEM: TIMESTEP
6000
ITEM: NUMBER OF ATOMS
50
ITEM: BOX BOUNDS pp pp pp
-5.0000000000000000e+01 5.0000000000000000e+01
-5.0000000000000000e+01 5.0000000000000000e+01
-5.0000000000000000e+01 5.0000000000000000e+01
ITEM: ATOMS id type x y z
1 1 24.3192 1.9803 -0.624937
2 1 24.1435 1.0144 -0.102833
3 1 23.777 1.87337 0.399262
4 1 23.6053 2.83229 0.706306
5 1 22.7402 2.68078 0.111843
6 1 23.3096 2.48838 -0.948258
7 1 22.6201 1.97511 -1.24841
8 1 23.3456 1.45733 -0.808313
9 1 22.4817 1.09931 -0.00593954
10 1 21.687 1.01185 0.535261
11 1 21.3722 1.89756 0.356377
12 1 21.2024 1.47579 1.31561
13 1 20.4552 1.35669 1.10746
14 1 20.1898 1.14346 -0.0533209
15 1 19.6288 0.484022 0.342049
16 1 19.7222 -0.0355688 -0.666639
17 1 20.0203 -0.929046 -0.42999
18 1 20.4757 -0.999996 -1.36443
19 1 20.4973 -1.93673 -1.17569
20 1 21.2254 -1.71144 -1.72707
21 1 22.1032 -1.58356 -1.29048
22 1 22.762 -1.52538 -0.60248
23 1 22.0828 -2.10453 -0.160475
24 1 22.3412 -1.92922 0.628358
25 1 22.8979 -1.66632 1.40205
26 1 21.9492 -1.11267 1.12994
27 1 21.825 -1.46861 1.86754
28 1 21.4556 -2.54144 1.65101
29 1 21.351 -2.03945 0.922573
30 1 20.7758 -1.12527 0.73445
31 1 21.559 -1.02022 0.157601
32 1 20.9371 -1.4288 -0.353399
33 1 21.3834 -0.670873 -0.881315
34 1 21.9231 0.148983 -1.47486
35 1 22.3094 0.867525 -1.31514
36 1 21.772 1.43583 -0.665205
37 1 21.2444 0.623159 -0.461478
38 1 20.6348 -0.0465594 -0.144836
39 1 20.9483 0.2255 0.7439
40 1 21.6472 0.0235275 0.23657
41 1 22.3101 -0.269956 -0.334554
42 1 22.9956 0.0909424 -1.30618
43 1 23.8637 -0.147762 -0.715824
44 1 23.3273 0.421856 -0.148992
45 1 23.479 0.121363 0.69052
46 1 23.1341 1.01644 1.1019
47 1 22.4527 0.0796645 1.28861
48 1 22.8517 -0.78539 0.827114
49 1 23.3559 -1.10642 -0.0117576
50 1 24.0091 -1.64022 0.766496
ITEM: TIMESTEP
7000
ITEM: NUMBER OF ATOMS
50
ITEM: BOX BOUNDS pp pp pp
-5.0000000000000000e+01 5.0000000000000000e+01
-5.0000000000000000e+01 5.0000000000000000e+01
-5.0000000000000000e+01 5.0000000000000000e+01
ITEM: ATOMS id type x y z
1 1 21.2453 0.944177 0.19779
2 1 20.2979 1.39924 0.0994177
3 1 20.6363 1.93718 -0.532216
4 1 21.1254 2.02691 0.114136
5 1 21.0402 2.29169 0.9991
6 1 21.9728 2.50378 0.488551
7 1 21.9784 1.89887 1.12887
8 1 22.9256 2.3109 1.12913
9 1 22.7796 1.52036 0.667797
10 1 22.1426 1.5556 -0.0300915
11 1 22.9513 2.05778 -0.19787
12 1 23.6113 1.30389 -0.258488
13 1 23.5294 1.37893 -1.17138
14 1 23.6694 0.49353 -1.56587
15 1 24.4891 0.245613 -1.31214
16 1 24.3771 -0.742684 -1.01714
17 1 24.2577 -1.17311 -1.99372
18 1 23.5763 -1.89929 -2.06105
19 1 23.992 -2.74496 -1.62198
20 1 23.2454 -2.95235 -1.07773
21 1 22.4244 -3.71284 -1.28191
22 1 22.0231 -2.84029 -0.785148
23 1 21.4858 -1.92007 -0.884246
24 1 21.0242 -2.62127 -0.542687
25 1 20.7152 -1.81891 -0.0839807
26 1 20.3154 -1.33544 -0.69781
27 1 21.2581 -0.840713 -0.249611
28 1 20.944 -0.128869 -0.478894
29 1 21.1847 0.761222 -0.974089
30 1 21.729 0.0281072 -1.59747
31 1 22.5045 -0.414138 -0.980699
32 1 22.7474 0.668163 -0.815682
33 1 23.6073 0.142773 -0.576019
34 1 23.1199 -0.497131 0.260405
35 1 22.947 -0.605758 1.07833
36 1 22.7477 0.274706 1.57351
37 1 23.6714 0.214213 0.86456
38 1 22.6784 0.492749 0.330992
39 1 21.8802 -0.0560683 0.168572
40 1 21.8496 -0.812884 0.814364
41 1 21.7741 -0.366342 1.67116
42 1 21.7444 0.688901 1.21745
43 1 21.3824 1.01474 1.97814
44 1 20.6398 1.08858 1.34167
45 1 20.7256 0.222007 2.06771
46 1 20.769 -0.752786 1.43667
47 1 21.0508 0.0211453 0.932219
48 1 20.0065 0.183048 1.30548
49 1 19.8713 -0.275693 0.606858
50 1 19.8358 -1.1572 0.315037
ITEM: TIMESTEP
8000
ITEM: NUMBER OF ATOMS
50
ITEM: BOX BOUNDS pp pp pp
-5.0000000000000000e+01 5.0000000000000000e+01
-5.0000000000000000e+01 5.0000000000000000e+01
-5.0000000000000000e+01 5.0000000000000000e+01
ITEM: ATOMS id type x y z
1 1 21.9191 1.71507 -1.35505
2 1 22.3831 1.24055 -0.268388
3 1 21.4755 1.10018 -0.447635
4 1 20.9466 0.619195 -0.850666
5 1 20.4126 0.801984 -0.0322526
6 1 20.1998 0.655001 0.98589
7 1 19.9052 1.65003 0.682778
8 1 20.6906 1.53648 1.23319
9 1 21.0233 2.5004 0.89036
10 1 20.3779 2.56855 0.186434
11 1 20.9904 1.74373 0.202887
12 1 21.8814 1.79218 0.471137
13 1 22.5974 0.962341 0.915023
14 1 23.5031 0.788501 1.38722
15 1 22.99 0.410347 2.38147
16 1 23.1765 -0.571328 2.14774
17 1 22.7789 -0.998224 1.43198
18 1 22.8811 -2.03523 1.30939
19 1 22.7655 -2.67785 0.442908
20 1 22.4654 -1.64929 0.0572016
21 1 22.2416 -1.34298 -0.729617
22 1 22.6372 -1.86853 -1.58137
23 1 22.0941 -1.12006 -1.92187
24 1 21.8134 -0.510666 -2.41748
25 1 21.3579 -0.551433 -1.43304
26 1 21.8797 -0.400464 -0.448997
27 1 22.8644 -0.559696 -0.229098
28 1 23.4603 -1.52549 -0.222029
29 1 23.8793 -0.329344 -0.139282
30 1 24.5837 -0.102259 0.612042
31 1 24.0782 -0.929126 0.654191
32 1 23.9565 -1.18882 1.61568
33 1 23.7831 -0.182714 1.34641
34 1 23.1311 -0.247188 0.767073
35 1 22.3556 0.187491 0.401416
36 1 21.9538 -0.343543 1.12533
37 1 21.7142 0.284089 1.7227
38 1 21.2778 0.581585 0.968658
39 1 21.2489 0.0976268 0.170164
40 1 20.7844 -0.767701 0.453805
41 1 20.9601 -0.859751 -0.436181
42 1 20.2648 -0.643128 -0.962183
43 1 19.9552 0.320556 -0.839812
44 1 20.2652 0.8794 -1.60446
45 1 20.6207 -0.0886336 -1.96282
46 1 21.3485 0.540844 -1.97568
47 1 22.1257 0.51396 -1.22206
48 1 22.5892 -0.481367 -1.3173
49 1 23.471 -0.773092 -1.20987
50 1 24.441 -0.742181 -0.955933
ITEM: TIMESTEP
9000
ITEM: NUMBER OF ATOMS
50
ITEM: BOX BOUNDS pp pp pp
-5.0000000000000000e+01 5.0000000000000000e+01
-5.0000000000000000e+01 5.0000000000000000e+01
-5.0000000000000000e+01 5.0000000000000000e+01
ITEM: ATOMS id type x y z
1 1 21.7865 1.61917 -0.509965
2 1 22.768 0.897858 -0.670989
3 1 22.6349 0.33301 -1.4691
4 1 21.7861 0.647778 -0.808415
5 1 21.4221 1.12437 -1.85098
6 1 22.4017 1.07115 -2.20295
7 1 22.2929 0.107384 -2.60728
8 1 21.6986 -0.219559 -1.8515
9 1 20.5737 -0.17785 -1.74044
10 1 20.651 -0.00921546 -0.81273
11 1 20.0775 0.497244 -0.773291
12 1 19.9339 0.284836 -0.0232847
13 1 19.7631 1.22518 0.235021
14 1 19.6055 1.95804 -0.547394
15 1 20.674 1.59385 -0.210942
16 1 20.9077 0.682678 0.260311
17 1 20.7631 -0.238753 0.988204
18 1 20.681 -1.24619 1.44896
19 1 20.0618 -1.13435 0.557393
20 1 20.8408 -1.73958 0.245457
21 1 21.585 -1.92924 -0.365029
22 1 22.1513 -2.20733 0.370065
23 1 22.6555 -1.27777 0.373522
24 1 22.9407 -0.565421 1.04621
25 1 23.6739 -0.0986586 0.903973
26 1 22.8744 0.362657 0.320333
27 1 22.099 -0.15772 0.47598
28 1 22.5236 0.327306 1.22364
29 1 22.4854 0.804043 1.95467
30 1 23.4475 0.294025 1.98595
31 1 22.7209 -0.497873 2.21473
32 1 22.1596 -0.802946 1.71872
33 1 22.0794 -1.62557 1.43156
34 1 21.7036 -1.12164 0.551726
35 1 20.812 -0.565671 0.0441535
36 1 20.8642 -1.0387 -0.851613
37 1 21.755 -0.986303 -0.521241
38 1 22.2971 -0.393641 -0.561264
39 1 23.3561 -0.345002 -0.388974
40 1 22.9664 -1.12203 -1.0925
41 1 23.7267 -1.54537 -1.14988
42 1 24.4565 -1.01269 -0.513545
43 1 24.555 0.0345635 -0.602447
44 1 24.8281 1.0239 -0.487151
45 1 24.0491 0.876751 0.236767
46 1 23.5616 1.07538 0.946233
47 1 23.3054 1.97752 0.268149
48 1 22.4272 1.64358 0.504218
49 1 21.76 1.13112 0.875867
50 1 21.3559 0.465672 1.43109
ITEM: TIMESTEP
10000
ITEM: NUMBER OF ATOMS
50
ITEM: BOX BOUNDS pp pp pp
-5.0000000000000000e+01 5.0000000000000000e+01
-5.0000000000000000e+01 5.0000000000000000e+01
-5.0000000000000000e+01 5.0000000000000000e+01
ITEM: ATOMS id type x y z
1 1 22.7795 0.466503 1.78072
2 1 23.4848 -0.321111 1.77309
3 1 22.9588 0.0161411 0.959484
4 1 22.374 0.181627 0.302293
5 1 22.7101 0.646913 -0.388425
6 1 22.5683 1.53208 -1.01841
7 1 21.5356 1.91772 -1.29591
8 1 21.5179 1.03212 -1.19527
9 1 21.7313 0.953587 -2.08931
10 1 22.2491 1.13279 -3.06967
11 1 22.8568 1.07241 -2.08817
12 1 22.7782 0.073836 -1.93557
13 1 22.9434 -0.970778 -2.35428
14 1 22.8072 -1.86995 -1.95336
15 1 21.7919 -1.9651 -2.20451
16 1 21.7847 -1.328 -2.75441
17 1 21.8936 -0.836004 -1.80716
18 1 21.0131 -1.36849 -1.30523
19 1 21.9443 -1.46917 -0.749938
20 1 21.8943 -0.692151 -0.16876
21 1 21.6074 -0.431209 0.880503
22 1 20.7754 -0.868201 1.38046
23 1 21.4029 -1.48586 0.842519
24 1 20.9707 -1.62913 -0.219793
25 1 20.8711 -0.551055 -0.2503
26 1 21.3176 0.248495 -0.0301038
27 1 21.0157 0.547168 0.720675
28 1 21.89 0.489877 1.16639
29 1 22.0028 1.0854 0.48658
30 1 22.0894 1.8886 -0.110701
31 1 21.1642 1.87565 -0.305397
32 1 20.7286 0.996597 -0.418632
33 1 20.6631 0.0650998 -1.12148
34 1 21.5292 -0.196118 -1.05836
35 1 22.4492 -0.372306 -0.879158
36 1 23.0843 -0.929465 -0.385678
37 1 22.5547 -1.38996 0.141718
38 1 22.4727 -0.974676 1.12267
39 1 23.1674 -1.10372 0.987976
40 1 22.8087 -1.76032 1.59299
41 1 23.4708 -1.45949 2.51272
42 1 22.7353 -0.864428 2.28081
43 1 21.8846 -0.373898 1.95083
44 1 20.9839 0.161795 2.17059
45 1 20.9787 0.809985 1.84592
46 1 21.7523 1.11742 2.23137
47 1 21.7661 2.12927 1.77569
48 1 22.2682 1.97144 1.0303
49 1 23.2152 1.39174 1.08625
50 1 23.2627 1.40632 0.135436
ITEM: TIMESTEP
11000
ITEM: NUMBER OF ATOMS
50
ITEM: BOX BOUNDS pp pp pp
-5.0000000000000000e+01 5.0000000000000000e+01
-5.0000000000000000e+01 5.0000000000000000e+01
-5.0000000000000000e+01 5.0000000000000000e+01
ITEM: ATOMS id type x y z
1 1 23.5578 2.15863 0.0151906
2 1 22.6446 2.2522 0.0799573
3 1 22.394 2.01236 1.08634
4 1 21.8654 1.3964 0.509444
5 1 22.4361 0.934934 1.10794
6 1 22.961 0.0435461 1.45209
7 1 23.4956 0.907107 1.41897
8 1 23.973 0.149417 1.19291
9 1 23.6373 -0.570694 0.815771
10 1 24.0052 -0.456059 -0.0682195
11 1 23.2492 -0.507442 -0.874582
12 1 23.2677 -1.19769 -0.058438
13 1 24.3301 -1.51242 -0.0624013
14 1 23.5604 -2.22619 -0.0451701
15 1 23.9276 -2.20034 -1.07669
16 1 22.8499 -1.52987 -0.969278
17 1 22.5555 -2.01337 -0.0575091
18 1 22.0013 -2.1087 -0.676659
19 1 22.061 -0.944471 -0.321444
20 1 21.3142 -0.354171 0.0818743
21 1 21.0367 -0.661465 -0.814882
22 1 21.865 -0.107907 -0.831012
23 1 21.071 0.457016 -1.28358
24 1 21.4581 1.27926 -1.63096
25 1 22.0636 0.983373 -1.47061
26 1 21.4041 1.13593 -0.495763
27 1 21.7648 2.05096 -0.796196
28 1 22.0148 2.14301 -1.72727
29 1 22.7079 2.22693 -2.34506
30 1 23.2797 2.55645 -1.58731
31 1 22.9269 1.81198 -0.959929
32 1 22.4293 1.38462 -0.372363
33 1 22.8323 0.468319 -0.945873
34 1 23.1842 0.744251 0.0511586
35 1 22.1471 0.44815 -0.0479378
36 1 22.9287 -0.282018 0.150767
37 1 22.3566 -0.485529 0.754401
38 1 22.8071 -1.31048 0.849246
39 1 22.1899 -1.86302 1.16163
40 1 21.4373 -1.07057 1.15048
41 1 21.3474 -1.55386 0.358154
42 1 20.3948 -1.3803 0.0879649
43 1 19.4648 -0.76282 0.364579
44 1 20.0577 -0.0568416 -0.0737241
45 1 19.6875 0.428527 0.860069
46 1 18.6792 0.54682 0.982951
47 1 19.0325 0.0315118 1.84119
48 1 19.4458 -0.76305 1.39935
49 1 20.4153 -0.691541 0.974019
50 1 19.9831 -1.94092 0.846415
ITEM: TIMESTEP
12000
ITEM: NUMBER OF ATOMS
50
ITEM: BOX BOUNDS pp pp pp
-5.0000000000000000e+01 5.0000000000000000e+01
-5.0000000000000000e+01 5.0000000000000000e+01
-5.0000000000000000e+01 5.0000000000000000e+01
ITEM: ATOMS id type x y z
1 1 22.9292 0.813417 -0.106918
2 1 23.5465 1.57183 -0.189032
3 1 24.0739 1.17022 0.801352
4 1 23.4294 1.63541 1.32061
5 1 22.9738 1.7053 2.19874
6 1 22.394 2.05252 1.81519
7 1 21.8593 1.83941 2.46272
8 1 21.067 1.99132 2.76749
9 1 20.3847 1.17702 2.51723
10 1 21.0952 1.3578 1.7809
11 1 21.1774 0.438438 1.46781
12 1 21.3295 0.514758 2.47372
13 1 22.1863 1.03084 2.68799
14 1 22.0915 0.888405 1.52499
15 1 22.7206 0.521228 2.0498
16 1 22.7151 -0.424792 1.69742
17 1 21.6123 -0.46515 1.58511
18 1 21.2341 -0.814952 0.540604
19 1 21.4786 -0.399042 -0.46221
20 1 22.0179 0.578592 -0.790564
21 1 21.3937 0.820484 -1.39169
22 1 22.262 0.454988 -1.90632
23 1 23.1636 -0.00568697 -2.02575
24 1 23.3473 -0.155834 -0.99813
25 1 22.7364 -0.212359 -0.441412
26 1 23.2377 -1.05772 0.0347298
27 1 23.4331 -1.52866 -0.920312
28 1 24.2053 -1.01793 -0.493521
29 1 24.0091 -0.28786 -0.0341648
30 1 23.9578 -0.25877 0.982979
31 1 23.0369 -0.174851 0.624609
32 1 22.943 0.750704 0.926264
33 1 22.0955 0.075242 0.554934
34 1 21.8949 0.867999 0.250316
35 1 20.9675 0.605722 -0.218406
36 1 20.486 -0.0276917 0.162884
37 1 20.3707 -0.757013 -0.497218
38 1 20.9719 -0.978336 -1.11803
39 1 20.7471 -0.310125 -1.50054
40 1 20.6893 0.415517 -2.41282
41 1 20.9322 -0.519802 -2.73641
42 1 21.5505 -0.614186 -2.10673
43 1 22.1492 -0.423706 -1.4162
44 1 22.2991 -1.14421 -1.05409
45 1 21.6615 -1.85451 -0.901947
46 1 21.6291 -1.51877 -1.719
47 1 20.9724 -1.67807 -2.25384
48 1 21.3793 -2.33282 -2.60774
49 1 21.207 -2.50598 -1.71751
50 1 20.4546 -1.80832 -1.20789
ITEM: TIMESTEP
13000
ITEM: NUMBER OF ATOMS
50
ITEM: BOX BOUNDS pp pp pp
-5.0000000000000000e+01 5.0000000000000000e+01
-5.0000000000000000e+01 5.0000000000000000e+01
-5.0000000000000000e+01 5.0000000000000000e+01
ITEM: ATOMS id type x y z
1 1 20.6768 0.750777 2.57761
2 1 20.5238 0.309335 1.77062
3 1 20.7822 1.44958 1.49545
4 1 20.9148 2.42159 1.09469
5 1 21.6485 2.66677 1.0015
6 1 21.9644 1.73923 1.15468
7 1 22.2702 1.36267 0.374478
8 1 21.2376 1.41085 0.222732
9 1 20.7993 1.68581 -0.321849
10 1 20.1337 1.24323 0.014715
11 1 20.599 0.51062 0.607736
12 1 20.8043 0.0969222 -0.370749
13 1 19.778 0.0318942 -0.524334
14 1 19.9325 -0.861719 -0.153896
15 1 20.8492 -1.07967 -0.286303
16 1 21.347 -1.64327 -0.76194
17 1 22.0122 -1.64025 0.0858958
18 1 22.9948 -1.15199 -0.353093
19 1 22.3886 -0.514959 -0.150768
20 1 23.0835 -0.208273 -0.967764
21 1 23.3807 -0.123521 -0.0502878
22 1 22.7368 0.220777 0.563727
23 1 22.4127 0.0226713 1.40959
24 1 23.3404 0.229113 1.4373
25 1 23.6041 -0.679059 1.00132
26 1 24.0528 -0.722825 1.85925
27 1 23.1061 -0.740807 2.05401
28 1 22.1412 -1.10471 2.17553
29 1 22.0271 -0.235665 2.49943
30 1 22.5806 0.547619 2.65921
31 1 22.3795 1.02218 1.90146
32 1 21.507 0.835199 1.24311
33 1 21.7355 0.317773 0.581123
34 1 21.9392 0.509294 -0.347105
35 1 22.7571 0.767778 -0.705537
36 1 23.1092 1.61733 -0.499318
37 1 23.7907 0.858013 -0.93432
38 1 23.4678 0.303599 -1.70504
39 1 24.2596 -0.214142 -1.54167
40 1 23.6489 -1.10546 -1.40322
41 1 23.5095 -2.0185 -1.36904
42 1 22.8202 -1.75004 -1.75274
43 1 22.3283 -1.16375 -1.11834
44 1 21.6284 -1.21145 -1.67337
45 1 22.1929 -0.267653 -1.65614
46 1 22.9682 -0.621881 -2.19154
47 1 22.2043 -1.22537 -2.57532
48 1 21.1431 -1.26336 -2.63244
49 1 20.198 -0.955246 -2.23176
50 1 20.7894 -0.427058 -1.50729
ITEM: TIMESTEP
14000
ITEM: NUMBER OF ATOMS
50
ITEM: BOX BOUNDS pp pp pp
-5.0000000000000000e+01 5.0000000000000000e+01
-5.0000000000000000e+01 5.0000000000000000e+01
-5.0000000000000000e+01 5.0000000000000000e+01
ITEM: ATOMS id type x y z
1 1 18.6014 0.3802 -0.00231463
2 1 18.8162 1.14066 -0.530446
3 1 19.2743 0.990361 0.315048
4 1 19.7498 0.444729 -0.283481
5 1 20.6223 0.84713 -0.475151
6 1 21.5604 1.25157 -0.801621
7 1 21.8795 1.78439 -0.165207
8 1 22.5558 0.979903 -0.243292
9 1 21.5964 0.446509 -0.268551
10 1 21.5574 0.194446 -1.13365
11 1 22.1799 0.106779 -2.08441
12 1 22.2201 0.966322 -1.61815
13 1 22.5671 0.279482 -1.15085
14 1 22.8732 -0.135133 -0.376162
15 1 22.9142 -0.741715 -1.18293
16 1 22.5982 -1.5077 -0.961695
17 1 22.0525 -0.917846 -0.433828
18 1 21.1826 -0.799239 -0.248936
19 1 21.8467 -1.20321 0.572362
20 1 21.0986 -1.11307 1.25692
21 1 20.7188 -0.727877 2.02301
22 1 21.7698 -0.469694 1.87599
23 1 21.4085 0.240479 1.97023
24 1 20.7258 0.786335 1.69254
25 1 20.2751 0.164089 1.92145
26 1 19.2719 -0.0233202 1.84613
27 1 18.8052 0.0550339 0.907181
28 1 19.1541 -0.784085 0.560315
29 1 19.6949 -0.861183 1.25921
30 1 20.322 -0.489354 0.613802
31 1 21.3957 -0.00811235 0.938035
32 1 22.2568 0.21939 1.01947
33 1 22.7772 0.0454582 1.80807
34 1 23.2117 0.778421 1.18225
35 1 24.0898 0.189977 1.47838
36 1 23.6239 -0.194897 0.592648
37 1 24.2347 0.565294 0.310024
38 1 24.6282 0.100857 -0.209108
39 1 25.1505 -0.478644 -0.571265
40 1 24.4531 -1.05447 -0.0173101
41 1 23.8087 -0.432046 -0.440455
42 1 23.2558 -1.21198 -0.277251
43 1 23.7863 -1.58566 -0.962363
44 1 24.0237 -0.786328 -1.53342
45 1 23.4894 -1.02076 -2.04475
46 1 23.6533 -0.360789 -2.62695
47 1 23.3471 0.262342 -1.83735
48 1 23.7032 0.801048 -0.916724
49 1 24.2711 1.4088 -0.740344
50 1 23.4473 1.47712 -0.00510403
ITEM: TIMESTEP
15000
ITEM: NUMBER OF ATOMS
50
ITEM: BOX BOUNDS pp pp pp
-5.0000000000000000e+01 5.0000000000000000e+01
-5.0000000000000000e+01 5.0000000000000000e+01
-5.0000000000000000e+01 5.0000000000000000e+01
ITEM: ATOMS id type x y z
1 1 20.2067 0.530023 -1.16436
2 1 20.6212 0.619967 -1.91048
3 1 21.451 0.731619 -1.44337
4 1 22.3044 0.393762 -1.5171
5 1 23.1806 -0.0689389 -1.66622
6 1 24.0814 -0.64928 -1.46831
7 1 24.2315 -0.649129 -0.55951
8 1 24.993 -0.190391 -1.21103
9 1 25.4976 0.580744 -1.79027
10 1 24.8312 1.28092 -2.11074
11 1 24.0391 1.15536 -1.53112
12 1 23.5003 1.10262 -0.68862
13 1 22.7858 0.646045 -0.110146
14 1 23.6713 0.301588 0.538218
15 1 23.7855 -0.674682 0.409785
16 1 22.7966 -0.459293 0.211576
17 1 22.0193 0.0944965 0.454323
18 1 22.0888 -0.372603 -0.588988
19 1 21.4176 -0.271924 -1.31479
20 1 20.7743 -0.6482 -1.67192
21 1 20.0641 -1.17506 -1.52325
22 1 20.4425 -1.88423 -0.959594
23 1 21.3361 -1.45449 -1.34383
24 1 22.1879 -0.960145 -1.45006
25 1 22.1718 -1.66085 -0.510503
26 1 21.5909 -0.942158 0.0332602
27 1 21.0036 -0.249485 0.398941
28 1 20.4123 0.440385 0.589939
29 1 19.9378 -0.463389 0.751099
30 1 20.3655 -1.11805 0.0140905
31 1 19.8975 -0.383437 -0.507117
32 1 20.9436 -0.0331859 -0.527502
33 1 21.2168 0.840757 -0.412497
34 1 20.9141 1.7524 -0.088149
35 1 20.3165 1.86532 0.782403
36 1 20.7752 1.13219 1.2775
37 1 20.5473 0.0811096 1.52084
38 1 20.9768 -0.339988 2.14052
39 1 21.5845 0.291847 2.65358
40 1 22.1941 -0.389432 2.15871
41 1 21.6391 -0.763072 1.41551
42 1 22.0218 -1.54498 1.33078
43 1 22.6827 -1.29499 1.67801
44 1 23.495 -0.783183 1.82642
45 1 22.8506 -0.0405593 1.40106
46 1 23.3517 0.859083 1.67477
47 1 22.6363 1.64179 1.81661
48 1 22.3278 0.661998 1.89074
49 1 22.4103 0.987168 0.920619
50 1 21.9286 1.47395 0.180202
ITEM: TIMESTEP
16000
ITEM: NUMBER OF ATOMS
50
ITEM: BOX BOUNDS pp pp pp
-5.0000000000000000e+01 5.0000000000000000e+01
-5.0000000000000000e+01 5.0000000000000000e+01
-5.0000000000000000e+01 5.0000000000000000e+01
ITEM: ATOMS id type x y z
1 1 24.9068 2.19431 0.29578
2 1 24.1005 1.61954 0.126318
3 1 23.4021 0.965382 0.204138
4 1 23.1938 0.327527 -0.263257
5 1 23.8095 0.316795 -1.0515
6 1 23.8798 -0.640081 -0.404
7 1 23.945 -0.338321 0.57463
8 1 22.9909 -0.149246 0.767875
9 1 22.555 -0.549868 1.58699
10 1 23.3308 -1.01072 2.11577
11 1 24.0109 -0.140669 1.57978
12 1 23.2859 0.407992 2.04836
13 1 23.6209 0.921373 1.30114
14 1 22.8268 1.28704 1.41312
15 1 22.1279 0.441734 1.66405
16 1 21.8112 1.02566e-05 0.936417
17 1 22.1783 0.393535 -0.111888
18 1 22.2907 0.942049 -0.789537
19 1 22.7006 -0.0579115 -1.01345
20 1 23.0607 -1.03146 -1.23599
21 1 22.7833 -0.74022 -0.219342
22 1 22.3055 -1.21292 0.356403
23 1 21.3139 -1.71202 0.720738
24 1 20.4748 -1.55929 -0.0132205
25 1 19.9275 -1.57145 -0.974752
26 1 20.0196 -2.25478 -1.70878
27 1 20.3346 -1.34872 -1.89702
28 1 21.0656 -1.42559 -1.25377
29 1 21.8523 -0.86843 -1.43721
30 1 22.1861 -1.61973 -1.14338
31 1 21.577 -1.66545 -0.400514
32 1 21.5449 -0.815774 -0.547269
33 1 21.0169 -0.652424 0.232286
34 1 20.7973 0.241536 -0.116401
35 1 21.3498 0.312762 -0.881856
36 1 21.7832 0.322981 -1.78385
37 1 20.8565 0.199492 -2.10315
38 1 20.3558 0.285976 -1.28001
39 1 19.5406 -0.357871 -1.11011
40 1 19.9769 -0.667511 -0.328043
41 1 19.9221 -0.241991 0.461869
42 1 20.0487 -1.18779 0.84672
43 1 20.9078 -0.546915 1.19065
44 1 20.8016 0.470281 1.0913
45 1 21.5387 1.00965 0.712654
46 1 22.4021 1.31802 0.496855
47 1 22.3012 2.35746 0.2835
48 1 22.6978 3.20306 0.101991
49 1 23.2663 2.62247 -0.0148857
50 1 23.5235 2.20618 0.97386
ITEM: TIMESTEP
17000
ITEM: NUMBER OF ATOMS
50
ITEM: BOX BOUNDS pp pp pp
-5.0000000000000000e+01 5.0000000000000000e+01
-5.0000000000000000e+01 5.0000000000000000e+01
-5.0000000000000000e+01 5.0000000000000000e+01
ITEM: ATOMS id type x y z
1 1 22.1607 -0.410145 2.98961
2 1 22.4027 -0.041418 2.18086
3 1 21.5467 -0.412763 1.82799
4 1 21.2251 0.431071 1.55237
5 1 20.7563 0.0870738 2.30862
6 1 20.3318 -0.527441 1.48673
7 1 19.1714 -0.321805 1.33647