ITEM: TIMESTEP
0
ITEM: NUMBER OF ATOMS
50
ITEM: BOX BOUNDS pp pp pp
-5.0000000000000000e+01 5.0000000000000000e+01
-5.0000000000000000e+01 5.0000000000000000e+01
-5.0000000000000000e+01 5.0000000000000000e+01
ITEM: ATOMS id type x y z
1 1 -2.34678 0 0
2 1 -1.34892 0 0
3 1 -0.353223 0 0
4 1 0.642464 0 0
5 1 1.63818 0 0
6 1 2.6339 0 0
7 1 3.6296 0 0
8 1 4.62529 0 0
9 1 5.62098 0 0
10 1 6.61668 0 0
11 1 7.61237 0 0
12 1 8.60807 0 0
13 1 9.60377 0 0
14 1 10.5995 0 0
15 1 11.5952 0 0
16 1 12.5909 0 0
17 1 13.5866 0 0
18 1 14.5823 0 0
19 1 15.578 0 0
20 1 16.5737 0 0
21 1 17.5694 0 0
22 1 18.5651 0 0
23 1 19.5608 0 0
24 1 20.5565 0 0
25 1 21.5522 0 0
26 1 22.5478 0 0
27 1 23.5435 0 0
28 1 24.5392 0 0
29 1 25.5349 0 0
30 1 26.5306 0 0
31 1 27.5263 0 0
32 1 28.522 0 0
33 1 29.5177 0 0
34 1 30.5134 0 0
35 1 31.5091 0 0
36 1 32.5048 0 0
37 1 33.5005 0 0
38 1 34.4962 0 0
39 1 35.4919 0 0
40 1 36.4876 0 0
41 1 37.4833 0 0
42 1 38.479 0 0
43 1 39.4747 0 0
44 1 40.4704 0 0
45 1 41.4661 0 0
46 1 42.4618 0 0
47 1 43.4575 0 0
48 1 44.4532 0 0
49 1 45.4489 0 0
50 1 46.4468 0 0
ITEM: TIMESTEP
1000
ITEM: NUMBER OF ATOMS
50
ITEM: BOX BOUNDS pp pp pp
-5.0000000000000000e+01 5.0000000000000000e+01
-5.0000000000000000e+01 5.0000000000000000e+01
-5.0000000000000000e+01 5.0000000000000000e+01
ITEM: ATOMS id type x y z
1 1 8.41534 0.299705 0.158991
2 1 8.11412 1.08245 0.822063
3 1 8.67238 0.358278 1.13062
4 1 9.17422 1.24902 0.985322
5 1 9.04569 1.31834 -0.114105
6 1 9.44497 0.440948 0.374651
7 1 9.84983 0.528513 -0.568882
8 1 10.9522 0.300118 -0.607566
9 1 11.1808 1.22756 -0.415242
10 1 11.8396 0.67511 0.00179795
11 1 12.7014 0.259662 0.0597056
12 1 12.1692 -0.0825667 -0.749817
13 1 13.1165 -0.190964 -0.73768
14 1 14.0515 -0.461024 -1.18827
15 1 13.7289 -1.04911 -0.336903
16 1 14.5756 -0.479488 -0.229718
17 1 15.301 -0.319812 -0.805558
18 1 16.0548 -0.0789099 -0.245396
19 1 16.9244 -0.188976 -0.546469
20 1 17.6754 -0.696825 -0.0896711
21 1 18.4475 -0.645948 -0.778224
22 1 18.7844 -0.587532 0.125443
23 1 19.5594 -0.926284 -0.310177
24 1 19.9974 -0.917302 0.59057
25 1 20.4992 -1.44083 -0.0415552
26 1 21.4652 -1.38013 0.312347
27 1 22.3939 -1.07147 -0.108204
28 1 23.3941 -1.2266 -0.579463
29 1 24.2996 -1.4423 -1.07878
30 1 25.1611 -0.983245 -1.35988
31 1 26.0389 -1.12405 -1.05171
32 1 26.9042 -0.646905 -1.10378
33 1 27.8801 -0.443723 -1.11338
34 1 28.8637 -0.0690716 -1.24666
35 1 29.7688 -0.376022 -0.816858
36 1 29.2909 0.239319 -0.230375
37 1 30.2494 0.31613 -0.070695
38 1 30.9424 0.0937543 -0.671341
39 1 31.1183 0.817145 0.00169802
40 1 32.0489 0.489138 -0.27054
41 1 32.842 0.787716 0.119
42 1 33.7152 0.72543 0.458426
43 1 34.516 0.980205 0.0828133
44 1 35.4604 1.16925 0.716872
45 1 35.5979 0.657901 1.49956
46 1 36.4647 0.960135 1.11657
47 1 36.5268 0.0780602 1.63911
48 1 35.8203 -0.0454021 2.29118
49 1 36.1561 0.90624 2.40759
50 1 35.3054 0.91436 2.57258
ITEM: TIMESTEP
2000
ITEM: NUMBER OF ATOMS
50
ITEM: BOX BOUNDS pp pp pp
-5.0000000000000000e+01 5.0000000000000000e+01
-5.0000000000000000e+01 5.0000000000000000e+01
-5.0000000000000000e+01 5.0000000000000000e+01
ITEM: ATOMS id type x y z
1 1 20.7407 0.939642 0.869343
2 1 20.2497 1.65081 0.926593
3 1 19.8607 1.32284 0.102147
4 1 19.0497 1.54792 0.881258
5 1 19.7127 1.08994 1.71197
6 1 19.6439 0.680245 0.772982
7 1 19.9002 -0.118323 0.187747
8 1 19.9631 0.447047 -0.552754
9 1 20.4172 1.26229 -0.871702
10 1 20.8383 1.03778 -0.147054
11 1 21.5851 0.613104 -0.265772
12 1 21.4343 0.968615 -1.18637
13 1 20.9507 0.143119 -0.958249
14 1 21.3167 -0.452465 -0.630039
15 1 20.8822 0.0025581 0.17752
16 1 21.7817 -0.441112 0.177018
17 1 21.7516 -1.31006 0.0308516
18 1 21.75 -1.96691 -0.468339
19 1 22.0403 -2.57888 -0.993471
20 1 22.4021 -1.95058 -1.62437
21 1 22.7836 -1.3601 -1.19052
22 1 22.242 -0.864469 -1.57496
23 1 21.2781 -0.481619 -1.75993
24 1 22.0668 0.134847 -1.25406
25 1 22.4075 1.02902 -1.31151
26 1 22.3036 0.751481 -2.10761
27 1 22.8221 0.194202 -2.44884
28 1 23.3117 -0.421976 -1.62404
29 1 23.1066 0.284242 -1.05135
30 1 22.8279 0.125964 -0.244976
31 1 22.6749 -0.90117 -0.26002
32 1 22.6883 -0.663938 0.818517
33 1 23.4347 -1.13019 1.02463
34 1 23.0861 -2.28747 1.29993
35 1 23.1019 -2.03651 0.514437
36 1 23.6111 -1.9633 -0.296472
37 1 24.0382 -1.17761 -0.287018
38 1 24.6773 -0.242055 -0.366651
39 1 23.9501 0.296678 -0.25124
40 1 23.7582 -0.145726 0.25972
41 1 23.8503 0.692989 0.717461
42 1 22.9178 0.984529 0.557072
43 1 22.084 0.330243 0.746908
44 1 22.1147 -0.102857 1.64643
45 1 23.1379 0.0607724 1.30414
46 1 22.8869 0.363731 2.23805
47 1 22.4856 0.918082 1.41988
48 1 22.5886 1.90743 1.03857
49 1 22.1499 1.82983 2.02132
50 1 21.8427 0.98738 2.28284
ITEM: TIMESTEP
3000
ITEM: NUMBER OF ATOMS
50
ITEM: BOX BOUNDS pp pp pp
-5.0000000000000000e+01 5.0000000000000000e+01
-5.0000000000000000e+01 5.0000000000000000e+01
-5.0000000000000000e+01 5.0000000000000000e+01
ITEM: ATOMS id type x y z
1 1 21.3483 0.760632 -2.02146
2 1 20.6836 0.200111 -1.72747
3 1 21.2975 -0.175519 -0.985909
4 1 21.0137 -1.23575 -0.482363
5 1 20.6272 -0.77307 0.378049
6 1 21.0326 -0.615775 1.06072
7 1 21.4548 0.299315 1.06578
8 1 21.8636 0.685569 0.310895
9 1 21.5199 -0.190152 0.00262279
10 1 22.1919 0.362272 -0.71743
11 1 21.3883 0.879242 -0.797524
12 1 22.2523 1.18969 -1.27268
13 1 22.7676 1.46601 -0.638975
14 1 23.3507 1.65286 -1.22244
15 1 23.4427 0.81482 -1.50511
16 1 23.8725 0.342748 -2.10034
17 1 23.4197 -0.259324 -1.66164
18 1 23.0343 -1.22112 -1.35471
19 1 21.9733 -1.15107 -0.858659
20 1 22.3683 -1.70709 -0.323302
21 1 22.6311 -0.853425 -0.0347676
22 1 23.1147 -0.381399 -0.653922
23 1 23.7231 -0.26313 0.346249
24 1 24.1817 -1.22416 -0.187312
25 1 24.7885 -0.649871 -0.0776493
26 1 24.6632 -0.44437 -1.10153
27 1 25.4247 0.0540835 -1.75445
28 1 24.6132 0.627704 -1.20209
29 1 24.5837 0.637416 -0.137135
30 1 23.7605 0.606732 -0.437487
31 1 23.7028 0.813492 0.493992
32 1 22.8539 0.256943 0.245641
33 1 22.3932 -0.16216 1.21133
34 1 22.1519 -0.959112 0.976199
35 1 21.6444 -1.29244 0.323783
36 1 20.5895 -1.73899 0.421639
37 1 21.244 -2.34664 0.762865
38 1 21.3218 -1.47945 1.42362
39 1 20.9436 -0.689908 2.25194
40 1 20.8775 0.368163 2.29826
41 1 20.4626 0.717297 1.54955
42 1 19.9333 -0.272193 2.02419
43 1 19.8457 -0.549618 0.95519
44 1 19.6858 0.368294 0.498042
45 1 20.0139 1.10398 -0.0612791
46 1 20.5191 0.145284 -0.11434
47 1 20.9176 1.13501 0.432797
48 1 21.0353 1.5895 1.27884
49 1 20.3075 2.23105 1.52298
50 1 19.6698 1.32751 1.5968
ITEM: TIMESTEP
4000
ITEM: NUMBER OF ATOMS
50
ITEM: BOX BOUNDS pp pp pp
-5.0000000000000000e+01 5.0000000000000000e+01
-5.0000000000000000e+01 5.0000000000000000e+01
-5.0000000000000000e+01 5.0000000000000000e+01
ITEM: ATOMS id type x y z
1 1 22.5671 0.952687 -2.84476
2 1 21.9717 0.474311 -2.15422
3 1 22.6446 0.334758 -1.69585
4 1 22.3289 0.230711 -0.707104
5 1 22.6351 -0.630009 -0.868163
6 1 21.8211 -0.698233 -0.219441
7 1 22.5594 -0.5643 0.175031
8 1 23.3459 -0.497036 -0.115476
9 1 23.5042 -0.495739 0.817025
10 1 23.39 0.361604 0.611115
11 1 22.6768 0.932654 0.923486
12 1 22.2919 1.27356 0.0564292
13 1 22.705 1.38363 -0.744822
14 1 22.4997 1.42329 -1.83075
15 1 23.2753 1.44232 -1.68798
16 1 23.5141 0.591717 -1.04013
17 1 24.2041 0.119198 -0.808788
18 1 24.4147 0.38705 -0.161588
19 1 24.4954 -0.543146 0.0544036
20 1 24.5666 -1.45717 0.167867
21 1 23.7221 -1.54012 -0.172784
22 1 22.7042 -1.69631 0.359345
23 1 23.4971 -2.09549 1.02531
24 1 23.0332 -1.29036 1.36218
25 1 22.7665 -1.34536 2.33605
26 1 22.5632 -0.613484 2.873
27 1 22.1626 -0.844166 3.7893
28 1 21.7727 0.0614239 3.48517
29 1 20.7925 0.444613 3.87681
30 1 20.2064 1.00137 3.17812
31 1 21.1211 0.629016 2.7769
32 1 20.9242 1.39499 2.15163
33 1 21.0295 0.621353 1.37161
34 1 21.1559 -0.284812 1.77457
35 1 21.93 -0.735606 1.02452
36 1 21.6084 -1.64591 0.225428
37 1 20.5789 -1.20999 -0.15176
38 1 21.3539 -1.03665 -1.08435
39 1 20.739 -0.400772 -1.87795
40 1 19.9095 -0.12804 -2.57894
41 1 20.2911 0.689596 -3.10265
42 1 21.2972 1.27821 -2.78928
43 1 20.9263 0.850746 -1.87915
44 1 21.574 1.35107 -1.07206
45 1 21.3531 0.194228 -1.19019
46 1 21.3407 0.502232 -0.386778
47 1 20.9401 -0.204738 0.153738
48 1 20.3402 0.122743 -0.608177
49 1 19.8186 0.0162844 -1.47152
50 1 19.6361 0.892097 -1.32437
ITEM: TIMESTEP
5000
ITEM: NUMBER OF ATOMS
50
ITEM: BOX BOUNDS pp pp pp
-5.0000000000000000e+01 5.0000000000000000e+01
-5.0000000000000000e+01 5.0000000000000000e+01
-5.0000000000000000e+01 5.0000000000000000e+01
ITEM: ATOMS id type x y z
1 1 25.072 1.15511 -0.24926
2 1 24.202 1.54184 -0.595725
3 1 23.7357 0.70928 -0.14117
4 1 23.2121 0.873079 0.466251
5 1 23.5924 0.0276445 0.747509
6 1 22.9311 -0.746388 0.675366
7 1 23.09 -0.154232 -0.0879525
8 1 22.4761 0.55792 -0.338364
9 1 21.6857 0.922314 -0.559933
10 1 22.0221 2.03125 -0.540856
11 1 21.6109 2.46656 0.235975
12 1 21.2991 1.52972 0.363012
13 1 21.868 0.821994 0.433263
14 1 21.4842 0.826776 1.24427
15 1 22.2298 1.68501 1.11058
16 1 22.0317 1.23417 2.38614
17 1 22.6122 0.755617 1.82552
18 1 21.6788 0.359356 2.02536
19 1 20.6939 0.0915408 1.71983
20 1 21.08 -0.291376 1.04583
21 1 22.1278 -0.138879 1.16512
22 1 21.8854 -0.87763 1.5822
23 1 22.4107 -1.59134 1.45746
24 1 21.6619 -1.95432 2.05037
25 1 21.5289 -2.47865 1.50779
26 1 20.458 -2.05489 1.35277
27 1 20.8597 -1.30952 1.41791
28 1 20.2303 -1.09955 1.78853
29 1 19.6327 -0.393228 1.29187
30 1 20.1631 0.155291 0.698217
31 1 21.0519 0.179359 0.120969
32 1 20.2935 0.0605288 -0.433245
33 1 20.1856 -0.879427 -0.706798
34 1 20.9023 -1.31738 -0.78389
35 1 20.5626 -1.77935 -0.208932
36 1 20.813 -1.13829 0.193519
37 1 21.7497 -1.07351 0.553752
38 1 21.9488 -0.148001 0.0910292
39 1 21.9209 -0.816211 -0.818649
40 1 22.8057 -0.965319 -1.22097
41 1 23.6058 -0.593911 -0.886719
42 1 22.8339 0.116742 -1.26554
43 1 23.3675 0.86123 -1.22589
44 1 24.0077 0.56055 -1.66019
45 1 23.3509 0.894972 -2.25209
46 1 22.2164 0.677849 -2.3102
47 1 22.2493 -0.31056 -2.6673
48 1 23.0896 0.0136047 -2.81295
49 1 23.2172 0.673167 -3.55844
50 1 22.7611 0.329495 -4.22535
ITEM: TIMESTEP
6000
ITEM: NUMBER OF ATOMS
50
ITEM: BOX BOUNDS pp pp pp
-5.0000000000000000e+01 5.0000000000000000e+01
-5.0000000000000000e+01 5.0000000000000000e+01
-5.0000000000000000e+01 5.0000000000000000e+01
ITEM: ATOMS id type x y z
1 1 19.8988 0.743757 1.22625
2 1 19.8334 1.31701 0.205713
3 1 20.0198 1.4073 -0.674836
4 1 21.0622 1.61462 -0.574565
5 1 20.849 0.892296 -0.142091
6 1 21.1261 1.22916 0.618013
7 1 22.0773 0.839929 0.956817
8 1 22.5439 0.190242 0.206734
9 1 23.4649 0.358718 0.0816585
10 1 24.2561 0.200497 0.725168
11 1 23.2249 0.581416 1.05338
12 1 23.0206 1.60439 1.18433
13 1 21.8952 1.91613 1.33348
14 1 20.987 2.50249 1.33306
15 1 21.8518 2.60554 2.09194
16 1 22.529 2.69584 1.34505
17 1 21.9892 2.8181 0.731399
18 1 21.8019 1.91373 0.133163
19 1 22.5812 1.30801 -0.139562
20 1 21.8818 0.755065 -0.376062
21 1 21.3983 -0.0137014 0.450099
22 1 21.4579 -0.758663 -0.177995
23 1 21.1224 0.0682928 -0.655351
24 1 20.3817 -0.126973 -0.0899878
25 1 19.7887 -0.421119 0.629393
26 1 19.746 -1.02731 -0.134626
27 1 20.1503 -1.57103 0.517435
28 1 20.8644 -0.988961 0.692111
29 1 21.3637 -1.82454 0.192867
30 1 20.9735 -2.51341 -0.551701
31 1 21.8895 -2.73183 -0.435259
32 1 22.7485 -2.49538 -0.349283
33 1 22.3919 -1.5198 -0.085869
34 1 22.0743 -1.8071 -0.818402
35 1 22.1402 -1.34647 -1.83546
36 1 21.5307 -0.872253 -1.13783
37 1 22.2945 -0.325685 -0.809284
38 1 22.7435 0.412437 -1.09766
39 1 22.4032 1.4186 -1.20473
40 1 21.91 0.486377 -1.60638
41 1 22.9162 0.581219 -2.16141
42 1 22.5584 -0.395367 -2.43107
43 1 23.2581 -0.915362 -2.0901
44 1 23.1769 -0.563334 -1.25911
45 1 23.3575 -1.3595 -0.557779
46 1 24.3288 -1.23151 -0.198541
47 1 23.8984 -1.65656 0.522785
48 1 24.7059 -1.51695 1.1876
49 1 24.1047 -0.779364 1.92926
50 1 23.9278 -1.69899 2.24724
ITEM: TIMESTEP
7000
ITEM: NUMBER OF ATOMS
50
ITEM: BOX BOUNDS pp pp pp
-5.0000000000000000e+01 5.0000000000000000e+01
-5.0000000000000000e+01 5.0000000000000000e+01
-5.0000000000000000e+01 5.0000000000000000e+01
ITEM: ATOMS id type x y z
1 1 23.0385 1.78372 -2.80932
2 1 22.529 1.39486 -3.53621
3 1 22.3745 0.415131 -2.96867
4 1 22.2506 0.572533 -2.03165
5 1 21.5973 0.333052 -1.16493
6 1 21.0544 -0.0517068 -0.767821
7 1 20.0807 0.0786132 -0.385789
8 1 20.3392 0.745166 0.317593
9 1 19.4128 0.223288 0.530448
10 1 19.0269 0.862864 -0.138822
11 1 19.8243 1.14952 -0.743802
12 1 19.7656 1.69825 0.297022
13 1 20.0314 1.47259 1.14451
14 1 20.677 1.89124 0.84475
15 1 21.0784 1.15427 1.17355
16 1 21.3279 0.265831 0.863459
17 1 21.6808 0.677982 0.100468
18 1 22.2407 0.108867 -0.27731
19 1 22.8299 0.229663 -1.101
20 1 22.9353 -0.57078 -0.713821
21 1 23.4197 -0.456407 -1.64516
22 1 22.5512 -0.316507 -2.11491
23 1 21.9557 -0.935432 -2.33615
24 1 21.498 -0.415279 -1.95355
25 1 21.7863 -0.93044 -1.06431
26 1 21.0073 -1.42345 -1.31732
27 1 20.5181 -0.927044 -0.701019
28 1 20.931 -1.37116 0.121816
29 1 20.9705 -0.329635 0.229253
30 1 21.8096 -0.774841 -0.104534
31 1 21.599 -0.967908 0.897008
32 1 22.3687 -1.04711 1.18599
33 1 22.7925 -0.547354 0.485167
34 1 22.6142 -1.33493 0.182755
35 1 22.9277 -2.1438 -0.45517
36 1 23.4334 -2.61578 -0.0296509
37 1 24.1002 -1.69734 -0.33275
38 1 24.1116 -0.686559 -0.193738
39 1 24.5893 0.155891 -0.000793792
40 1 25.04 0.420776 1.0354
41 1 24.6392 -0.197294 1.72137
42 1 24.9789 0.57324 2.29723
43 1 24.0245 0.451692 2.47417
44 1 23.3667 0.656741 2.05941
45 1 23.3174 -0.388294 1.5836
46 1 22.5243 0.103459 1.56334
47 1 22.2682 0.565025 2.33004
48 1 21.6281 1.4476 1.93589
49 1 21.2688 0.35017 2.07195
50 1 20.3644 0.347028 1.44202
ITEM: TIMESTEP
8000
ITEM: NUMBER OF ATOMS
50
ITEM: BOX BOUNDS pp pp pp
-5.0000000000000000e+01 5.0000000000000000e+01
-5.0000000000000000e+01 5.0000000000000000e+01
-5.0000000000000000e+01 5.0000000000000000e+01
ITEM: ATOMS id type x y z
1 1 23.4574 0.626648 0.888678
2 1 22.8334 1.20252 0.890562
3 1 22.0816 1.81027 0.608078
4 1 22.9588 2.18132 0.373692
5 1 22.7903 2.18897 -0.543743
6 1 22.9653 1.12775 -0.584315
7 1 22.9897 0.292612 -0.8884
8 1 23.0131 0.0566346 -1.91014
9 1 22.7156 -0.615809 -1.69608
10 1 21.8683 -0.516565 -2.30941
11 1 21.1961 0.295594 -2.04167
12 1 20.4456 1.08027 -2.00167
13 1 21.6181 1.34928 -2.43105
14 1 21.5081 1.01059 -1.3184
15 1 22.0547 0.638877 -0.48003
16 1 21.2469 1.34116 -0.450466
17 1 21.072 0.776198 0.369567
18 1 21.8924 0.816241 0.91992
19 1 22.644 0.812656 1.88528
20 1 22.6092 0.116085 1.18475
21 1 22.671 0.269552 0.326233
22 1 23.68 -0.0583046 -0.0234377
23 1 23.9177 -0.381254 0.864591
24 1 23.2839 -0.949778 0.830294
25 1 22.9543 -1.74319 0.0937002
26 1 23.8495 -1.45309 -0.260261
27 1 23.9276 -2.20972 -0.966888
28 1 23.213 -2.39524 -0.654205
29 1 22.581 -1.47195 -0.807158
30 1 21.9502 -1.09619 -1.25102
31 1 21.8353 -0.0882059 -1.33118
32 1 22.203 -0.404985 -0.521254
33 1 22.4573 -0.691854 0.225227
34 1 21.8913 -1.53817 0.359519
35 1 21.4239 -1.68309 1.16069
36 1 21.5863 -0.924485 1.52194
37 1 22.2601 -0.868629 1.68889
38 1 22.1696 -0.235702 2.12024
39 1 21.3967 0.246239 2.74837
40 1 20.7876 0.772197 2.45959
41 1 20.8609 1.70568 1.92231
42 1 20.3792 0.914165 1.27726
43 1 21.1771 0.117071 1.37084
44 1 21.6364 -0.12397 0.359721
45 1 21.0006 -0.7784 0.573901
46 1 21.1525 -0.939917 -0.203438
47 1 20.57 -0.101208 -0.246051
48 1 20.6651 0.402575 -1.0409
49 1 20.1155 -0.213274 -1.7587
50 1 20.9427 -0.668155 -1.30398
ITEM: TIMESTEP
9000
ITEM: NUMBER OF ATOMS
50
ITEM: BOX BOUNDS pp pp pp
-5.0000000000000000e+01 5.0000000000000000e+01
-5.0000000000000000e+01 5.0000000000000000e+01
-5.0000000000000000e+01 5.0000000000000000e+01
ITEM: ATOMS id type x y z
1 1 21.0233 1.39648 1.62831
2 1 22.0198 1.36233 1.70584
3 1 22.5971 1.70446 0.807947
4 1 23.2814 1.11736 1.4101
5 1 22.684 0.320268 1.91674
6 1 22.9462 0.165904 0.880618
7 1 23.7712 -0.282294 1.45961
8 1 24.0321 0.678621 0.796033
9 1 23.5094 1.23232 0.356466
10 1 24.1642 1.92273 0.445898
11 1 24.0906 1.53194 -0.4749
12 1 24.3287 0.700024 -0.244082
13 1 23.8435 0.659159 -1.12521
14 1 24.0818 -0.0746051 -0.852836
15 1 23.2371 0.190879 -0.540455
16 1 23.1101 1.25375 -0.675012
17 1 22.3473 1.29634 -0.968159
18 1 21.385 1.04592 -0.753874
19 1 21.7246 1.73103 -0.110032
20 1 22.0194 0.672847 0.0354068
21 1 21.9848 -0.195958 0.109328
22 1 21.2245 -0.0762076 -0.743043
23 1 20.899 0.204369 0.0786619
24 1 21.0032 0.368953 0.991745
25 1 21.5889 0.415455 2.13338
26 1 21.3924 -0.405367 1.64138
27 1 21.1124 -1.26373 1.31338
28 1 21.7469 -0.979595 0.690255
29 1 22.1976 -1.19413 -0.160113
30 1 22.7461 -0.943092 0.688424
31 1 23.185 -1.32636 1.37531
32 1 23.6513 -2.19599 0.584503
33 1 22.6743 -2.02668 0.796507
34 1 21.7082 -2.04529 0.497666
35 1 20.8478 -1.24765 0.308631
36 1 21.1662 -1.38154 -0.62479
37 1 20.1979 -0.69551 -0.360603
38 1 19.2767 -1.19461 -0.559613
39 1 19.1693 -1.60321 -1.53715
40 1 20.1557 -0.954854 -1.68113
41 1 20.0331 -0.134667 -1.43125
42 1 19.387 0.170303 -0.533746
43 1 19.59 0.814851 -1.28275
44 1 20.6991 0.636895 -1.40457
45 1 21.1996 -0.124188 -1.8867
46 1 21.6699 0.48143 -1.55989
47 1 22.1834 0.112268 -0.886032
48 1 22.5892 -0.362809 -1.47749
49 1 23.2281 -0.762067 -0.85124
50 1 23.7955 -0.716466 0.0725224
ITEM: TIMESTEP
10000
ITEM: NUMBER OF ATOMS
50
ITEM: BOX BOUNDS pp pp pp
-5.0000000000000000e+01 5.0000000000000000e+01
-5.0000000000000000e+01 5.0000000000000000e+01
-5.0000000000000000e+01 5.0000000000000000e+01
ITEM: ATOMS id type x y z
1 1 19.7062 1.76335 0.327838
2 1 20.0807 1.63565 -0.565868
3 1 19.2998 1.09612 -0.919064
4 1 19.8359 0.464803 -0.827512
5 1 20.1282 0.651301 0.211301
6 1 20.2755 0.998284 1.24435
7 1 20.784 1.439 0.343671
8 1 21.2354 0.640016 0.550877
9 1 22.0713 0.7172 0.398476
10 1 21.814 0.768158 1.42294
11 1 22.605 1.30891 1.49288
12 1 23.1877 0.430586 1.83928
13 1 22.3514 -0.017648 1.59845
14 1 22.9166 0.380323 0.828448
15 1 23.8721 -0.0209311 0.783917
16 1 23.9078 0.835841 0.785248
17 1 23.7334 1.34349 0.109243
18 1 23.3375 1.64634 -0.701337
19 1 22.4267 1.48635 -0.705799
20 1 21.3596 1.04344 -0.871689
21 1 22.055 0.565749 -1.13289
22 1 21.9793 -0.5392 -1.25681
23 1 21.6473 -0.0455254 -0.244794
24 1 20.93 -0.513857 -0.401886
25 1 20.8541 -1.35447 -1.31612
26 1 20.8708 -2.17474 -0.588074
27 1 20.3031 -1.37282 -0.42391
28 1 19.6441 -0.448488 -0.0598213
29 1 19.1505 -1.22295 0.476796
30 1 19.5361 -1.24798 1.5241
31 1 19.7367 -0.249352 1.0634
32 1 20.4773 -0.513812 1.4506
33 1 20.6504 -0.161377 0.479678
34 1 20.9761 -1.16746 0.380205
35 1 21.8118 -1.32101 -0.127293
36 1 22.737 -1.04463 -0.494611
37 1 23.3297 -1.00832 -1.50031
38 1 23.8304 -0.113884 -1.61057
39 1 24.3013 -0.765841 -1.06631
40 1 23.4099 -0.344222 -0.593687
41 1 22.9817 0.550378 -0.186201
42 1 23.9039 0.577508 -0.741275
43 1 24.6727 1.19272 -1.08344
44 1 24.8151 0.0931128 -1.26511
45 1 25.1365 -0.107913 -0.316759
46 1 24.3865 -0.106898 -0.119426
47 1 24.259 -1.01024 -0.131199
48 1 23.5514 -1.29335 0.552809
49 1 22.8772 -1.55257 1.19391
50 1 22.7567 -1.90915 0.193343
ITEM: TIMESTEP
11000
ITEM: NUMBER OF ATOMS
50
ITEM: BOX BOUNDS pp pp pp
-5.0000000000000000e+01 5.0000000000000000e+01
-5.0000000000000000e+01 5.0000000000000000e+01
-5.0000000000000000e+01 5.0000000000000000e+01
ITEM: ATOMS id type x y z
1 1 22.4969 0.439625 -2.58691
2 1 22.0195 -0.481309 -2.6081
3 1 21.2652 0.376098 -2.2852
4 1 20.9983 1.19242 -1.74275
5 1 21.5726 1.60841 -1.12893
6 1 22.0193 1.63462 -0.166343
7 1 21.883 0.768384 -0.489351
8 1 21.6454 0.341214 -1.29309
9 1 20.6624 0.188786 -1.35132
10 1 19.935 0.915018 -1.24239
11 1 20.7657 1.02728 -0.666152
12 1 21.0245 1.34857 0.238261
13 1 20.287 0.770954 0.50751
14 1 20.5509 -0.266242 0.584172
15 1 21.4076 0.386333 0.407046
16 1 21.5346 0.881364 1.12123
17 1 21.7887 1.7286 0.986775
18 1 22.8429 1.88215 0.909792
19 1 22.5615 0.955989 1.51514
20 1 22.6762 0.621437 0.584378
21 1 23.4119 -0.00480838 1.38527
22 1 23.6587 0.91302 0.99871
23 1 23.8641 1.9105 0.571035
24 1 23.3511 2.41068 -0.409644
25 1 22.9329 1.52224 -0.92
26 1 22.8341 0.669578 -1.36957
27 1 23.3969 -0.0574748 -1.38651
28 1 24.2982 -0.639099 -1.62441
29 1 23.8126 -1.01834 -0.775759
30 1 23.0168 -1.09053 -1.35118
31 1 22.2944 -0.323364 -1.56271
32 1 21.8591 -1.26676 -1.31679
33 1 21.7661 -1.72556 -0.258519
34 1 21.8727 -2.33179 0.602462
35 1 20.8229 -1.78867 0.510003
36 1 20.1721 -1.30842 0.987307
37 1 20.6881 -0.892739 1.92689
38 1 21.2678 -0.994532 1.16977
39 1 21.2321 -0.154006 1.41403
40 1 22.1428 -0.272049 1.06515
41 1 21.8471 -0.733052 0.246622
42 1 21.8556 -0.324065 -0.446011
43 1 22.7449 0.0490038 -0.389822
44 1 22.6754 -1.09722 -0.41401
45 1 22.9386 -0.736825 0.550514
46 1 23.0199 -0.940951 1.25414
47 1 22.4026 -0.785515 1.96664
48 1 22.0131 -1.37781 2.71713
49 1 22.6273 -1.82368 1.70196
50 1 21.7425 -2.10745 1.86353
ITEM: TIMESTEP
12000
ITEM: NUMBER OF ATOMS
50
ITEM: BOX BOUNDS pp pp pp
-5.0000000000000000e+01 5.0000000000000000e+01
-5.0000000000000000e+01 5.0000000000000000e+01
-5.0000000000000000e+01 5.0000000000000000e+01
ITEM: ATOMS id type x y z
1 1 23.4593 0.102294 -0.404818
2 1 23.748 0.697854 0.183841
3 1 23.9585 1.31998 -0.383017
4 1 23.1907 1.65024 -0.543296
5 1 23.2509 1.8224 0.593712
6 1 23.2009 0.838221 1.04158
7 1 23.5203 -0.122694 0.853584
8 1 22.5893 0.186454 0.426698
9 1 22.2515 0.451552 -0.354587
10 1 22.1443 1.31266 -0.510867
11 1 22.5338 1.91819 -1.25325
12 1 22.8312 1.51666 -1.94418
13 1 22.9208 0.887257 -1.13694
14 1 22.2374 0.300621 -1.42028
15 1 22.4964 -0.0964815 -2.42512
16 1 21.5976 0.207627 -2.28224
17 1 20.9674 0.854567 -1.39829
18 1 20.6909 1.35333 -0.549837
19 1 21.3904 1.4271 0.152924
20 1 22.2503 1.20005 0.566954
21 1 21.9534 2.18343 0.678621
22 1 20.9371 1.8575 1.05029
23 1 20.1419 1.47327 0.504089
24 1 20.502 0.70792 0.353389
25 1 21.4268 0.606394 0.730964
26 1 22.0689 0.189451 1.48067
27 1 23.0608 0.255569 1.86013
28 1 23.5409 -0.533723 1.96867
29 1 22.3487 -0.736995 1.86034
30 1 22.7991 -0.785736 1.07236
31 1 23.7881 -1.34699 0.499339
32 1 23.66 -1.05042 -0.401701
33 1 22.9181 -0.66629 0.0311111
34 1 22.8145 -1.82474 0.0486686
35 1 21.9692 -1.73239 -0.209841
36 1 21.0779 -1.80901 -0.749751
37 1 20.3625 -1.89212 -0.0774121
38 1 20.6025 -0.827874 -0.488428
39 1 20.1577 -1.49493 -1.13198
40 1 20.7167 -1.22447 -1.84602
41 1 21.3092 -0.468654 -1.30528
42 1 22.1367 -1.03067 -1.01737
43 1 21.8652 -0.704246 -0.339981
44 1 21.3001 -0.182632 0.16836
45 1 21.8371 -0.671165 0.688534
46 1 22.091 -1.56084 0.962272
47 1 21.4631 -1.26978 1.49867
48 1 20.554 -1.47891 1.32527
49 1 20.7506 -0.480065 1.17183
50 1 21.1163 -1.32875 0.401615
ITEM: TIMESTEP
13000
ITEM: NUMBER OF ATOMS
50
ITEM: BOX BOUNDS pp pp pp
-5.0000000000000000e+01 5.0000000000000000e+01
-5.0000000000000000e+01 5.0000000000000000e+01
-5.0000000000000000e+01 5.0000000000000000e+01
ITEM: ATOMS id type x y z
1 1 22.3758 2.38377 0.415704
2 1 22.1691 2.9322 -0.434938
3 1 22.0362 2.19072 -1.0977
4 1 21.1491 2.39257 -0.528275
5 1 20.5254 1.81827 0.0758428
6 1 21.2924 1.40388 0.47473
7 1 21.0028 0.578917 0.668543
8 1 21.1452 0.764122 1.66046
9 1 21.1571 -0.2732 1.46082
10 1 22.1073 -0.0133468 1.71869
11 1 22.4585 -0.948818 1.40664
12 1 23.291 -1.39176 1.91654
13 1 23.9995 -0.621793 2.24006
14 1 23.7565 0.253418 2.01518
15 1 23.7749 -0.406119 1.1933
16 1 23.3209 0.445159 1.09294
17 1 22.9682 1.23554 0.683485
18 1 23.8538 1.02902 0.360595
19 1 23.3564 1.5157 -0.373789
20 1 22.3295 1.49076 -0.193022
21 1 21.5373 1.39874 -0.655193
22 1 22.3657 1.10156 -1.23307
23 1 22.103 0.0915052 -1.28492
24 1 21.2974 -0.417297 -1.68581
25 1 20.6356 0.17253 -1.21123
26 1 21.2367 0.435479 -0.642813
27 1 20.4606 0.908742 -0.469048
28 1 20.1651 -0.140727 -0.228046
29 1 20.97 -0.537354 0.2205
30 1 20.5431 -1.13284 0.911737
31 1 21.4274 -1.48057 0.95841
32 1 22.3529 -1.44078 0.41982
33 1 22.9443 -1.79238 -0.115085
34 1 23.5385 -1.55282 -0.753194
35 1 22.7298 -2.16128 -1.2342
36 1 22.3775 -1.32568 -1.02257
37 1 22.5142 -0.671846 -1.87063
38 1 23.3046 -0.267164 -1.675
39 1 23.2987 -0.437968 -0.564777
40 1 24.4209 -0.626224 -0.788603
41 1 24.0406 -0.858685 0.181388
42 1 23.1246 -0.797529 0.565982
43 1 22.5389 -0.0219351 0.592437
44 1 22.2074 0.579023 -0.00525408
45 1 22.1748 -0.400018 -0.329818
46 1 21.2717 -0.634848 -0.722477
47 1 20.8833 -1.54397 -0.357519
48 1 19.8733 -1.08995 0.119867
49 1 19.4873 -0.872189 -0.834634
50 1 18.6054 -1.26252 -1.04207
ITEM: TIMESTEP
14000
ITEM: NUMBER OF ATOMS
50
ITEM: BOX BOUNDS pp pp pp
-5.0000000000000000e+01 5.0000000000000000e+01
-5.0000000000000000e+01 5.0000000000000000e+01
-5.0000000000000000e+01 5.0000000000000000e+01
ITEM: ATOMS id type x y z
1 1 21.6559 1.22685 -2.24508
2 1 22.1031 1.195 -1.43204
3 1 21.9514 2.12561 -0.967692
4 1 22.4671 1.49579 -0.310082
5 1 23.1992 1.52687 0.373784
6 1 22.3576 1.93105 0.802406
7 1 21.5767 1.96534 0.283495
8 1 20.755 1.81495 0.113479
9 1 20.9737 2.26761 -0.833485
10 1 20.7116 1.47561 -1.12135
11 1 21.1002 0.872531 -0.761754
12 1 21.1952 -0.0682662 -0.47035
13 1 20.2751 0.0741483 -0.776198
14 1 19.5527 -0.181811 -0.169467
15 1 20.1811 -0.823368 0.345458
16 1 20.2369 0.20881 0.477175
17 1 20.9364 0.522005 0.396087
18 1 21.2396 1.30046 0.944253
19 1 22.1757 0.644199 1.24509
20 1 23.1017 0.520744 0.76627
21 1 23.8816 0.542829 0.214379
22 1 23.3123 0.61979 -0.598684
23 1 22.167 0.361206 -0.690478
24 1 21.5857 0.258291 -1.57714
25 1 22.2152 -0.461327 -1.33389
26 1 21.0591 -0.654974 -1.35051
27 1 20.6788 -1.05189 -0.52353
28 1 21.2123 -1.94326 -0.339574
29 1 21.1911 -2.46364 -1.146
30 1 21.8629 -1.62642 -1.25834
31 1 22.6058 -2.17993 -1.0159
32 1 22.3044 -2.50952 -0.0932737
33 1 22.3505 -1.45255 -0.262013
34 1 22.6418 -1.43236 0.588451
35 1 22.5598 -0.583976 0.970012
36 1 23.1592 -0.0839423 1.78617
37 1 22.6164 -1.01122 1.98443
38 1 22.3735 -0.814139 2.8767
39 1 22.7755 -0.17707 3.24579
40 1 22.3086 0.310023 2.31312
41 1 21.6869 -0.278257 1.8598
42 1 21.1982 -0.387487 0.974857
43 1 21.658 -0.757923 0.331886
44 1 22.0843 -0.0134706 0.301475
45 1 22.8719 -0.391591 -0.15165
46 1 23.7679 -0.531099 0.190086
47 1 23.6152 -1.15572 -0.51413
48 1 24.5807 -0.772316 -0.812555
49 1 24.3408 0.173701 -0.890173
50 1 24.0886 0.374123 -1.73932
ITEM: TIMESTEP
15000
ITEM: NUMBER OF ATOMS
50
ITEM: BOX BOUNDS pp pp pp
-5.0000000000000000e+01 5.0000000000000000e+01
-5.0000000000000000e+01 5.0000000000000000e+01
-5.0000000000000000e+01 5.0000000000000000e+01
ITEM: ATOMS id type x y z
1 1 22.7039 3.21237 1.2148
2 1 22.8635 2.25292 1.15812
3 1 23.0329 2.2026 0.135089
4 1 22.114 1.8302 0.599654
5 1 21.1208 1.96791 0.660154
6 1 21.3485 1.33275 0.0504119
7 1 20.9652 1.29416 -0.848541
8 1 20.4473 0.61256 -1.14124
9 1 21.529 0.525345 -1.10595
10 1 22.1999 0.85222 -1.98167
11 1 22.1363 1.31997 -1.21147
12 1 23.0079 1.11831 -1.30952
13 1 23.8702 0.719962 -1.40377
14 1 23.4157 -0.248644 -1.47882
15 1 23.0557 0.165085 -0.499881
16 1 22.7037 1.21615 -0.229206
17 1 22.0445 0.471057 -0.23852
18 1 21.5736 0.617359 0.72717
19 1 22.1839 0.956856 1.60256
20 1 22.7943 1.43387 1.79381
21 1 23.4166 1.25005 0.783178
22 1 22.9187 0.460451 0.636945
23 1 23.4927 0.406599 1.52379
24 1 23.1754 -0.631641 1.58033
25 1 22.5842 -1.45981 1.01617
26 1 23.0224 -2.39704 1.05696
27 1 22.2774 -2.38289 0.632534
28 1 22.7332 -1.6177 -0.167845
29 1 22.898 -0.963029 -0.820955
30 1 22.781 -1.26215 -1.70503
31 1 22.3366 -2.08803 -1.0752
32 1 21.6099 -1.66285 -0.403618
33 1 21.6468 -1.50959 0.483902
34 1 21.512 -1.42689 1.51909
35 1 20.9124 -0.691178 0.947274
36 1 21.1717 -0.427955 0.180462
37 1 20.9315 0.404049 -0.174956
38 1 19.9808 0.122182 -0.302002
39 1 19.9905 -0.480179 -1.20526
40 1 20.7627 -0.606469 -0.883802
41 1 20.617 -1.26508 -0.0293747
42 1 20.6683 -1.74675 -0.85297
43 1 21.4317 -1.58146 -1.41832
44 1 21.9033 -0.747927 -1.71889
45 1 22.4249 -0.000708659 -1.33406
46 1 21.9202 -0.573867 -0.676161
47 1 22.355 -0.487688 0.336302
48 1 21.8954 -0.486844 1.22213
49 1 21.5688 0.105897 2.01097
50 1 22.4501 -0.104503 2.34523
ITEM: TIMESTEP
16000
ITEM: NUMBER OF ATOMS
50
ITEM: BOX BOUNDS pp pp pp
-5.0000000000000000e+01 5.0000000000000000e+01
-5.0000000000000000e+01 5.0000000000000000e+01
-5.0000000000000000e+01 5.0000000000000000e+01
ITEM: ATOMS id type x y z
1 1 20.9225 0.847106 -1.2767
2 1 21.5196 1.59908 -0.743102
3 1 22.0778 1.13302 -1.09412
4 1 21.9948 0.618293 -0.380854
5 1 22.9125 0.525213 -0.690246
6 1 22.7242 1.41068 -0.314746
7 1 23.0908 1.31544 -1.51275
8 1 23.8089 1.40378 -0.967968
9 1 24.409 0.493509 -0.542346
10 1 24.5255 -0.313812 -0.10078
11 1 24.009 -0.257645 0.623586
12 1 23.4545 0.478054 0.24672
13 1 24.1312 1.06778 0.360653
14 1 24.0215 0.600526 1.27661
15 1 23.1913 0.645412 2.00409
16 1 22.9227 0.143844 1.1232
17 1 22.9413 1.29489 1.07474
18 1 22.0184 1.48625 1.58694
19 1 21.3775 0.816268 1.36359
20 1 21.6762 0.327987 2.09824
21 1 21.6485 -0.223065 1.39437
22 1 20.8875 -0.0189016 0.479202
23 1 19.8376 -0.0213318 0.689963
24 1 20.1578 -0.648649 1.13827
25 1 19.3456 -1.26278 0.888574
26 1 19.1332 -1.16662 1.90479
27 1 19.7957 -2.05229 1.8138
28 1 20.5127 -1.69462 1.14551
29 1 20.8854 -1.34112 0.390945
30 1 21.5109 -1.77858 0.401084
31 1 21.711 -0.710814 0.492987
32 1 21.7091 -0.918745 -0.470079
33 1 21.6984 -1.43025 -1.36234
34 1 20.9432 -2.09654 -0.890196
35 1 20.7485 -1.06781 -0.946184
36 1 21.0871 0.09484 -0.618961
37 1 21.7638 0.197574 -1.54468
38 1 21.2722 -0.603454 -1.80268
39 1 22.2679 -0.554436 -2.18203
40 1 22.4924 -0.423151 -1.12728
41 1 22.8804 0.317055 -1.70084
42 1 23.8605 0.208572 -1.56093
43 1 24.3612 -0.444954 -1.09187
44 1 23.4908 -0.430118 -0.691415
45 1 22.938 -1.05529 0.0259266
46 1 22.6443 -0.168098 0.118035
47 1 22.06 0.354654 0.67695
48 1 21.9788 1.2896 0.507149
49 1 21.0139 1.2075 0.0696623
50 1 20.1342 0.806153 -0.282503
ITEM: TIMESTEP
17000
ITEM: NUMBER OF ATOMS
50
ITEM: BOX BOUNDS pp pp pp
-5.0000000000000000e+01 5.0000000000000000e+01
-5.0000000000000000e+01 5.0000000000000000e+01
-5.0000000000000000e+01 5.0000000000000000e+01
ITEM: ATOMS id type x y z
1 1 24.5746 1.30029 -1.14171
2 1 24.5076 0.930635 -0.309199
3 1 24.171 1.17911 0.842522
4 1 23.6853 0.566207 0.299514
5 1 22.807 0.279167 -0.099194
6 1 22.3128 1.04855 -0.319595
7 1 23.1329 1.40274 0.0690439
8 1 23.0027 1.63691 1.05688