ITEM: TIMESTEP
0
ITEM: NUMBER OF ATOMS
50
ITEM: BOX BOUNDS pp pp pp
-5.0000000000000000e+01 5.0000000000000000e+01
-5.0000000000000000e+01 5.0000000000000000e+01
-5.0000000000000000e+01 5.0000000000000000e+01
ITEM: ATOMS id type x y z
1 1 -2.31884 0 0
2 1 -1.32156 0 0
3 1 -0.327035 0 0
4 1 0.667464 0 0
5 1 1.66203 0 0
6 1 2.65662 0 0
7 1 3.65117 0 0
8 1 4.64569 0 0
9 1 5.64021 0 0
10 1 6.63473 0 0
11 1 7.62926 0 0
12 1 8.62379 0 0
13 1 9.61833 0 0
14 1 10.6129 0 0
15 1 11.6074 0 0
16 1 12.6019 0 0
17 1 13.5965 0 0
18 1 14.591 0 0
19 1 15.5855 0 0
20 1 16.5801 0 0
21 1 17.5746 0 0
22 1 18.5691 0 0
23 1 19.5637 0 0
24 1 20.5582 0 0
25 1 21.5527 0 0
26 1 22.5473 0 0
27 1 23.5418 0 0
28 1 24.5363 0 0
29 1 25.5309 0 0
30 1 26.5254 0 0
31 1 27.5199 0 0
32 1 28.5145 0 0
33 1 29.509 0 0
34 1 30.5035 0 0
35 1 31.4981 0 0
36 1 32.4926 0 0
37 1 33.4871 0 0
38 1 34.4817 0 0
39 1 35.4762 0 0
40 1 36.4707 0 0
41 1 37.4653 0 0
42 1 38.4598 0 0
43 1 39.4543 0 0
44 1 40.4488 0 0
45 1 41.4434 0 0
46 1 42.438 0 0
47 1 43.4325 0 0
48 1 44.427 0 0
49 1 45.4216 0 0
50 1 46.4188 0 0
ITEM: TIMESTEP
1000
ITEM: NUMBER OF ATOMS
50
ITEM: BOX BOUNDS pp pp pp
-5.0000000000000000e+01 5.0000000000000000e+01
-5.0000000000000000e+01 5.0000000000000000e+01
-5.0000000000000000e+01 5.0000000000000000e+01
ITEM: ATOMS id type x y z
1 1 8.55687 0.822769 -0.0708073
2 1 9.02162 0.929706 0.650985
3 1 9.62805 0.415942 0.986814
4 1 10.5692 0.768896 1.01124
5 1 10.2048 1.31269 0.279683
6 1 9.9141 0.535938 -0.158985
7 1 10.6447 0.537994 -0.863852
8 1 10.9174 1.37037 -0.48295
9 1 11.4978 0.95749 0.176538
10 1 11.1796 -0.011033 -0.0634326
11 1 11.762 -0.109024 -0.793927
12 1 12.1807 -0.872624 -0.436871
13 1 12.8395 -0.12681 -0.22718
14 1 13.3707 0.0271344 -0.865188
15 1 14.2561 -0.0838587 -0.111529
16 1 14.4524 -1.09343 -0.177729
17 1 15.1304 -0.409339 -0.556457
18 1 15.9747 -0.159753 -1.01297
19 1 16.6612 -0.109336 -0.241284
20 1 17.5546 -0.633952 -0.208693
21 1 18.3406 -1.12842 -0.453242
22 1 18.7719 -0.35019 -0.0581567
23 1 19.5492 -1.02825 0.00855834
24 1 20.3528 -0.953892 0.37171
25 1 20.7166 -0.97124 -0.562744
26 1 21.4268 -1.29684 0.138093
27 1 22.3162 -1.00489 -0.0486782
28 1 23.3037 -1.02029 -0.500572
29 1 24.1444 -1.30978 -0.922538
30 1 24.9722 -1.01659 -1.23129
31 1 25.9231 -0.998796 -1.09884
32 1 26.8799 -0.710484 -1.07219
33 1 27.7869 -0.538894 -1.14313
34 1 28.7777 -0.23501 -1.34815
35 1 29.8381 -0.451532 -0.868021
36 1 30.5851 0.0812889 -0.330888
37 1 31.124 0.293863 0.408588
38 1 31.5277 0.569493 -0.561758
39 1 31.9017 1.05111 0.216305
40 1 32.2074 0.251465 0.608027
41 1 33.2507 0.460838 1.05184
42 1 33.6466 1.09047 0.373558
43 1 34.0324 0.0754212 -0.0492546
44 1 34.5327 0.348346 0.643068
45 1 34.5725 1.29755 0.783256
46 1 35.4944 1.50576 0.912818
47 1 35.4325 0.50328 1.08821
48 1 34.7079 0.909073 1.81306
49 1 35.027 -0.127771 2.15977
50 1 35.0409 0.635148 2.83919
ITEM: TIMESTEP
2000
ITEM: NUMBER OF ATOMS
50
ITEM: BOX BOUNDS pp pp pp
-5.0000000000000000e+01 5.0000000000000000e+01
-5.0000000000000000e+01 5.0000000000000000e+01
-5.0000000000000000e+01 5.0000000000000000e+01
ITEM: ATOMS id type x y z
1 1 21.2166 2.11557 0.24245
2 1 20.5004 2.04092 0.942901
3 1 20.4987 1.24243 0.439703
4 1 20.5951 0.937117 1.54973
5 1 20.4938 0.334396 0.790759
6 1 21.0388 0.39329 -0.0117
7 1 21.9018 -0.17182 -0.546975
8 1 22.1674 -0.599911 -1.6623
9 1 22.7646 0.232863 -1.44225
10 1 21.735 0.553377 -1.08877
11 1 20.5456 0.716926 -0.882376
12 1 19.4887 0.732335 -0.100396
13 1 19.9927 -0.108072 -0.601611
14 1 20.1022 -1.06498 -0.887825
15 1 20.9151 -0.366177 -0.844254
16 1 21.5011 -1.23151 -0.543243
17 1 21.3206 -0.659166 0.191224
18 1 21.8072 -1.59523 0.479603
19 1 21.0333 -2.09778 -0.0477369
20 1 20.7453 -2.26521 -0.827851
21 1 20.8045 -1.44665 -1.671
22 1 21.0909 -0.530356 -1.96668
23 1 21.3412 0.410226 -2.35564
24 1 21.9734 -0.263147 -2.53686
25 1 22.8961 -0.256573 -2.40215
26 1 23.6251 -0.0355466 -1.97293
27 1 23.7656 -0.892479 -1.21526
28 1 22.8046 -1.28356 -1.114
29 1 23.0328 -2.01704 -0.437787
30 1 23.026 -1.0047 0.00278673
31 1 23.0154 0.100115 -0.470112
32 1 24.1055 0.0412543 -0.770985
33 1 24.0389 -0.72446 -0.189214
34 1 24.6567 -1.25796 0.318266
35 1 23.9273 -0.63037 0.811237
36 1 23.2875 -0.972473 1.44237
37 1 22.6398 -0.235771 0.696083
38 1 21.9491 -0.355715 1.13028
39 1 21.522 0.366976 0.88525
40 1 21.5084 1.51929 1.09109
41 1 21.7209 1.13151 0.164774
42 1 22.4493 1.12053 0.322742
43 1 23.2421 0.811675 1.0818
44 1 22.2087 1.00655 1.48589
45 1 22.0678 1.72125 2.10834
46 1 23.0727 1.88792 1.72995
47 1 23.1191 1.64086 2.64689
48 1 23.0252 0.917863 2.14136
49 1 23.4723 0.215849 2.1667
50 1 22.7475 -0.124464 1.72774
ITEM: TIMESTEP
3000
ITEM: NUMBER OF ATOMS
50
ITEM: BOX BOUNDS pp pp pp
-5.0000000000000000e+01 5.0000000000000000e+01
-5.0000000000000000e+01 5.0000000000000000e+01
-5.0000000000000000e+01 5.0000000000000000e+01
ITEM: ATOMS id type x y z
1 1 20.2473 -1.30958 -1.99254
2 1 21.2908 -0.893418 -2.28902
3 1 21.0819 -0.298995 -1.55473
4 1 21.2994 -0.915641 -0.87445
5 1 21.1157 -0.737392 0.0833929
6 1 21.1881 0.0794461 -0.400157
7 1 21.6917 0.848527 0.204421
8 1 22.0029 -0.26805 0.291991
9 1 22.3704 -0.148921 -0.705989
10 1 22.46 0.740262 -0.491509
11 1 21.9058 0.861536 -1.23093
12 1 21.9259 0.498858 -1.8684
13 1 21.7012 0.816157 -2.84285
14 1 22.8747 0.556844 -3.24306
15 1 22.4237 0.44418 -4.18274
16 1 21.4448 -0.0655262 -4.60143
17 1 21.896 -0.172025 -3.61262
18 1 22.2455 -0.205254 -2.65842
19 1 22.1752 -0.457981 -1.84271
20 1 23.2171 -0.616644 -1.99544
21 1 22.9019 0.349156 -1.81835
22 1 23.4096 0.665694 -1.02026
23 1 23.844 -0.0672579 -1.36423
24 1 23.8129 -0.301783 -0.318426
25 1 23.3737 0.53206 0.255167
26 1 23.1346 -0.123056 0.722837
27 1 23.1649 -1.43264 0.514763
28 1 23.0752 -1.11775 1.36642
29 1 23.0444 -2.12989 1.31498
30 1 23.0541 -2.42313 2.10012
31 1 22.2643 -1.87702 2.37963
32 1 22.7433 -1.0504 2.4583
33 1 22.0784 -0.694442 3.22365
34 1 21.679 -1.00874 2.4376
35 1 21.8127 -0.473733 1.49477
36 1 21.2066 0.0329432 0.977286
37 1 21.2376 0.604582 1.84166
38 1 21.4538 1.59503 2.09836
39 1 21.8175 1.68243 1.35313
40 1 22.2442 2.08364 0.513758
41 1 22.7756 1.45957 0.953495
42 1 22.4382 0.592206 0.815952
43 1 22.3524 0.542113 1.59832
44 1 22.4343 1.17155 2.26509
45 1 21.8136 0.359488 2.55992
46 1 20.9489 -0.314469 2.69581
47 1 20.4309 -0.285145 1.97133
48 1 20.1852 0.779691 1.59804
49 1 20.8106 1.33089 0.604436
50 1 20.3996 0.762038 0.213622
ITEM: TIMESTEP
4000
ITEM: NUMBER OF ATOMS
50
ITEM: BOX BOUNDS pp pp pp
-5.0000000000000000e+01 5.0000000000000000e+01
-5.0000000000000000e+01 5.0000000000000000e+01
-5.0000000000000000e+01 5.0000000000000000e+01
ITEM: ATOMS id type x y z
1 1 21.4791 -0.254666 -1.95729
2 1 21.3379 0.577029 -1.4147
3 1 22.016 0.303771 -0.849627
4 1 23.1111 0.598151 -1.07362
5 1 23.8173 0.597583 -1.37734
6 1 24.5965 -0.00609889 -1.52525
7 1 25.0588 0.460412 -0.910985
8 1 24.0424 0.125181 -0.376726
9 1 24.4547 0.50426 0.37536
10 1 24.5432 1.26315 -0.26337
11 1 24.7559 1.76196 0.632215
12 1 24.8307 1.22248 1.44728
13 1 24.6288 0.149385 1.53278
14 1 23.9973 -0.329241 0.743653
15 1 24.557 -0.839484 0.192893
16 1 23.4264 -0.843469 -0.0650375
17 1 23.7359 -1.54407 0.69066
18 1 24.0873 -1.02417 1.43131
19 1 23.3434 -0.521676 1.56362
20 1 23.0763 0.139102 0.791053
21 1 23.4865 1.01331 0.496456
22 1 23.0075 1.65098 -0.167036
23 1 22.0234 1.74347 -0.317282
24 1 22.3271 0.867544 0.11882
25 1 22.7726 -0.114769 -0.271268
26 1 22.1479 -0.26763 0.36828
27 1 21.9546 -0.555547 1.20487
28 1 22.6177 -1.27968 0.745979
29 1 22.4739 -1.22427 -0.0992849
30 1 21.7124 -1.14346 -0.384655
31 1 21.3336 -0.705494 -0.974637
32 1 20.6912 -1.37834 -0.721947
33 1 20.2258 -0.896289 -1.60815
34 1 19.9967 -0.449323 -0.78734
35 1 20.326 0.268691 -1.53614
36 1 20.487 0.541914 -0.596218
37 1 21.3698 0.395234 -0.0382269
38 1 21.4105 0.669161 0.909123
39 1 21.091 1.37443 0.36054
40 1 19.855 1.38357 0.529424
41 1 19.168 0.899766 1.30196
42 1 18.6959 0.601629 0.490425
43 1 19.7876 0.278554 0.241052
44 1 20.2636 0.503059 1.10645
45 1 20.2285 -0.393031 1.24632
46 1 20.7511 -0.583055 0.31639
47 1 20.0645 -1.25556 0.250952
48 1 19.6928 -1.62569 -0.862247
49 1 19.1281 -1.06403 -0.281174
50 1 18.5137 -1.59473 -0.628317
ITEM: TIMESTEP
5000
ITEM: NUMBER OF ATOMS
50
ITEM: BOX BOUNDS pp pp pp
-5.0000000000000000e+01 5.0000000000000000e+01
-5.0000000000000000e+01 5.0000000000000000e+01
-5.0000000000000000e+01 5.0000000000000000e+01
ITEM: ATOMS id type x y z
1 1 24.0073 -0.293878 0.538676
2 1 23.5327 -0.869684 -0.00918315
3 1 23.4989 -0.938685 1.11252
4 1 22.5922 -0.754084 1.01802
5 1 22.6145 -1.29348 1.82471
6 1 21.7952 -1.46691 1.17972
7 1 21.936 -0.330881 1.68433
8 1 22.6974 0.152241 1.54747
9 1 22.9964 0.325151 0.558225
10 1 23.6363 1.04906 0.517059
11 1 23.4834 1.03172 1.52001
12 1 22.6838 1.15924 2.13243
13 1 23.0183 0.447026 2.50033
14 1 23.3065 -0.536015 2.31641
15 1 22.3479 -0.372377 2.59734
16 1 21.7094 -1.12193 2.25989
17 1 21.2422 -0.59794 2.52667
18 1 20.8348 -1.05362 1.85268
19 1 21.1896 -0.619272 1.03104
20 1 20.3375 -0.563437 0.572035
21 1 20.247 0.372606 1.33397
22 1 21.249 0.434981 1.37383
23 1 21.7199 1.28971 1.54721
24 1 22.6711 1.52927 1.0474
25 1 21.6663 1.22495 0.468555
26 1 22.2665 0.64638 -0.12214
27 1 22.049 -0.0351777 0.516499
28 1 21.9874 -0.603163 -0.341698
29 1 21.5819 -1.33045 -1.21454
30 1 22.6168 -1.69066 -0.984806
31 1 23.258 -0.963428 -1.28416
32 1 23.0096 -0.323678 -1.69403
33 1 23.0067 -0.136048 -0.436378
34 1 22.9113 0.618335 -1.08677
35 1 22.0928 0.298486 -1.09396
36 1 21.33 0.0623516 -1.11233
37 1 20.5616 0.727646 -0.678181
38 1 21.4127 1.08519 -0.653423
39 1 21.7382 2.14232 -1.23474
40 1 22.1919 1.44091 -1.46711
41 1 21.3497 0.990459 -1.62974
42 1 21.8268 1.29845 -2.64685
43 1 22.3884 0.358039 -3.13984
44 1 22.319 0.503857 -2.11043
45 1 21.8863 -0.55977 -1.83279
46 1 22.1161 -0.792659 -2.82573
47 1 21.0602 -0.550994 -2.90666
48 1 20.0996 -0.720305 -2.21509
49 1 19.9121 -0.110885 -1.69703
50 1 20.5139 -0.558971 -1.15941
ITEM: TIMESTEP
6000
ITEM: NUMBER OF ATOMS
50
ITEM: BOX BOUNDS pp pp pp
-5.0000000000000000e+01 5.0000000000000000e+01
-5.0000000000000000e+01 5.0000000000000000e+01
-5.0000000000000000e+01 5.0000000000000000e+01
ITEM: ATOMS id type x y z
1 1 22.3151 -0.04616 1.77924
2 1 21.8763 0.297353 1.36857
3 1 21.2806 -0.594399 1.21286
4 1 21.7546 -1.12083 1.94249
5 1 21.6542 -1.54992 0.934909
6 1 21.6577 -2.54727 0.440875
7 1 21.3032 -2.17568 -0.0987941
8 1 21.9409 -1.58959 -0.530681
9 1 22.3339 -1.22098 0.193252
10 1 22.1726 -0.251836 -0.209116
11 1 21.2435 -0.907823 -0.00372562
12 1 20.9184 -1.13002 -0.952166
13 1 19.8273 -1.05812 -1.24598
14 1 19.3192 -0.262625 -1.08272
15 1 19.7043 0.798993 -0.46616
16 1 19.9739 1.54687 0.160284
17 1 19.8403 1.78204 -1.01835
18 1 20.7302 1.28045 -1.2899
19 1 20.9604 1.91713 -0.321914
20 1 20.8971 1.18446 0.0435986
21 1 20.5463 0.631345 0.953136
22 1 20.8515 1.44029 1.64471
23 1 21.3911 1.87174 1.12416
24 1 22.2858 2.00734 0.930617
25 1 21.9732 1.12794 0.337057
26 1 21.5264 0.12484 0.502044
27 1 20.7308 0.159982 -0.429978
28 1 21.5192 -0.00967236 -0.971794
29 1 22.0095 -0.871557 -1.58406
30 1 22.6302 -1.75833 -1.44593
31 1 22.0547 -2.37075 -1.20945
32 1 22.9685 -2.54268 -0.621575
33 1 23.7104 -1.78829 -1.01274
34 1 22.9706 -1.02881 -0.641461
35 1 23.2811 -0.783905 -1.16515
36 1 23.2537 -1.13833 -2.00826
37 1 22.6927 -0.109142 -2.21768
38 1 22.5873 0.771089 -1.76585
39 1 21.8703 1.14053 -1.03187
40 1 22.7201 1.30089 -0.768494
41 1 22.9062 0.472206 -0.354515
42 1 23.5934 0.922673 0.00928686
43 1 23.6769 1.52197 0.74767
44 1 22.8166 0.993545 0.995472
45 1 22.7814 0.176085 0.692263
46 1 23.4602 0.100227 1.34131
47 1 24.5213 -0.449303 1.27895
48 1 24.5343 0.393174 1.82288
49 1 24.812 1.38709 2.02925
50 1 24.1206 1.95576 1.96345
ITEM: TIMESTEP
7000
ITEM: NUMBER OF ATOMS
50
ITEM: BOX BOUNDS pp pp pp
-5.0000000000000000e+01 5.0000000000000000e+01
-5.0000000000000000e+01 5.0000000000000000e+01
-5.0000000000000000e+01 5.0000000000000000e+01
ITEM: ATOMS id type x y z
1 1 20.8082 1.09251 -0.938493
2 1 20.3227 0.85497 -1.66441
3 1 19.8589 -0.0496217 -1.25232
4 1 20.8117 -0.146991 -1.422
5 1 20.7777 -0.699741 -0.617377
6 1 20.6845 0.105201 -0.22993
7 1 20.7228 0.214797 0.782991
8 1 20.8194 -0.676527 0.433878
9 1 21.6383 -0.76021 -0.0779845
10 1 21.3112 -1.66718 -0.0195815
11 1 22.1612 -1.67097 -0.649695
12 1 22.8929 -1.94856 -0.434215
13 1 23.2951 -1.4071 -1.07345
14 1 22.16 -1.4413 -1.67316
15 1 22.7286 -1.11744 -2.33794
16 1 23.0202 -0.50597 -1.77535
17 1 22.9693 -0.482217 -0.856686
18 1 21.803 -0.466935 -1.05562
19 1 21.5891 0.264163 -0.936306
20 1 21.3316 0.761427 -1.99902
21 1 22.3624 0.526856 -1.61668
22 1 22.4374 1.2875 -1.71772
23 1 21.9845 1.18466 -0.893761
24 1 22.1836 1.39352 -0.0311302
25 1 21.7086 1.89575 0.719764
26 1 21.0051 1.22505 0.2776
27 1 21.6543 0.416126 0.47324
28 1 22.4339 0.39587 -0.253989
29 1 23.09 0.820801 -0.543118
30 1 23.7532 0.0644682 -0.895238
31 1 23.271 -0.0427774 0.150006
32 1 23.8378 -0.585039 0.654291
33 1 24.6403 -0.526399 0.140286
34 1 24.6276 0.483718 0.276411
35 1 24.4248 1.18332 1.06054
36 1 23.59 1.24042 0.683857
37 1 23.0354 1.28461 1.42297
38 1 22.5888 0.518398 0.836759
39 1 22.5507 -0.329953 0.732182
40 1 22.7195 -1.07035 0.321172
41 1 22.2956 -1.74836 0.398715
42 1 21.572 -2.09335 1.30985
43 1 21.6064 -1.10485 0.986021
44 1 21.6917 -0.46372 1.45688
45 1 21.9286 0.367063 1.5446
46 1 21.4138 1.10708 1.25483
47 1 20.2341 1.27962 1.48882
48 1 20.8001 0.931227 2.22775
49 1 21.1504 0.180828 2.46608
50 1 20.2023 -0.0744094 2.86567
ITEM: TIMESTEP
8000
ITEM: NUMBER OF ATOMS
50
ITEM: BOX BOUNDS pp pp pp
-5.0000000000000000e+01 5.0000000000000000e+01
-5.0000000000000000e+01 5.0000000000000000e+01
-5.0000000000000000e+01 5.0000000000000000e+01
ITEM: ATOMS id type x y z
1 1 19.2545 1.04296 -1.95414
2 1 20.3693 1.3295 -1.86765
3 1 21.4071 1.09185 -1.66687
4 1 21.1902 1.1304 -0.58292
5 1 22.045 0.623257 -0.228646
6 1 22.0455 0.197209 -1.24607
7 1 22.0012 -0.8296 -1.39012
8 1 21.4647 -0.342063 -0.639644
9 1 22.3405 -0.654542 -0.259506
10 1 21.7819 -1.19681 -0.135517
11 1 22.5362 -1.65056 -0.554269
12 1 23.4333 -1.39231 -0.051915
13 1 23.6476 -1.17576 1.02982
14 1 23.8844 -0.319386 0.969655
15 1 24.5818 -0.121611 1.34264
16 1 24.7327 -1.15856 1.11656
17 1 25.2453 -0.850129 0.216894
18 1 24.3262 -0.987786 0.0767452
19 1 23.6869 -0.304805 -0.101594
20 1 23.191 0.286238 0.340462
21 1 23.9812 0.748678 0.470326
22 1 24.6387 -0.0304331 0.281395
23 1 24.431 -0.240907 -1.00288
24 1 23.5364 -0.726802 -1.33108
25 1 23.4256 0.173973 -1.01695
26 1 23.9931 0.793251 -0.649873
27 1 22.9568 1.01155 -0.397502
28 1 22.7647 1.34794 0.586863
29 1 23.2088 0.676305 1.27728
30 1 22.3677 -0.098759 1.34635
31 1 22.0899 -0.952091 0.779844
32 1 21.1352 -0.527689 0.486605
33 1 20.4151 -0.789342 1.33609
34 1 20.9273 0.183665 1.54248
35 1 21.5686 0.458893 2.28517
36 1 21.0702 1.29598 1.88861
37 1 22.1292 1.39232 2.39284
38 1 22.2251 1.06551 1.44954
39 1 21.7555 0.731407 0.869944
40 1 20.6864 0.598344 0.207374
41 1 20.022 -0.192874 0.362531
42 1 19.1026 -0.278022 0.0776842
43 1 19.679 -1.10505 -0.205328
44 1 19.5496 -0.656387 -1.17956
45 1 20.398 -1.2303 -0.962313
46 1 20.7253 -0.452864 -1.62173
47 1 20.224 0.438483 -1.48283
48 1 20.4587 -0.0195766 -0.714847
49 1 19.7509 0.25477 -0.587076
50 1 20.1183 1.41251 -0.902889
ITEM: TIMESTEP
9000
ITEM: NUMBER OF ATOMS
50
ITEM: BOX BOUNDS pp pp pp
-5.0000000000000000e+01 5.0000000000000000e+01
-5.0000000000000000e+01 5.0000000000000000e+01
-5.0000000000000000e+01 5.0000000000000000e+01
ITEM: ATOMS id type x y z
1 1 22.8994 0.667526 -1.92981
2 1 22.681 -0.22028 -1.35489
3 1 23.0612 0.162336 -0.697019
4 1 23.6858 0.723343 -0.486014
5 1 22.9741 1.0843 0.300886
6 1 23.1309 0.480924 0.582025
7 1 24.0352 0.595855 0.963002
8 1 24.9063 -0.116946 1.12946
9 1 23.9193 -0.341459 1.36578
10 1 23.6304 -0.305058 0.240915
11 1 23.0217 -0.82461 -0.145764
12 1 22.8874 -0.421923 1.00777
13 1 21.8085 -0.0514751 1.09778
14 1 21.3256 0.182402 1.88658
15 1 20.636 0.203762 1.31214
16 1 20.5403 -0.904552 0.949192
17 1 21.1638 -1.3632 0.763282
18 1 22.11 -1.36726 0.384088
19 1 23.1761 -1.62812 0.439475
20 1 23.5921 -1.36339 1.08194
21 1 23.3279 -1.07137 1.77514
22 1 22.5747 -0.316205 2.10735
23 1 23.4167 0.130132 2.13414
24 1 23.1354 0.944656 1.99056
25 1 22.5222 0.815451 1.36265
26 1 22.9586 1.73586 1.19285
27 1 22.1453 2.33015 0.993058
28 1 21.8159 1.27155 0.638833
29 1 20.9805 1.8352 0.432574
30 1 21.0497 1.43123 1.36488
31 1 20.4858 0.881635 0.447917
32 1 19.8492 0.111657 -0.12126
33 1 20.8863 -0.282128 0.341919
34 1 20.6174 -0.714807 -0.33353
35 1 20.5395 -1.45013 -0.806992
36 1 20.2959 -0.947815 -1.77665
37 1 20.9556 -0.890599 -2.4002
38 1 20.7465 0.015031 -2.4039
39 1 21.2959 0.233474 -3.14147
40 1 22.2444 0.196666 -2.83444
41 1 21.8302 -0.580441 -2.90324
42 1 21.7702 -0.227972 -1.91688
43 1 21.1945 -0.409181 -1.27538
44 1 22.1477 -1.12595 -1.2297
45 1 21.5902 -0.979922 -0.445348
46 1 22.1032 -0.376141 -0.525495
47 1 22.0747 -0.132553 0.174865
48 1 21.4845 0.56276 -0.287387
49 1 20.7026 0.548885 -0.831983
50 1 20.5737 1.26869 -0.613699
ITEM: TIMESTEP
10000
ITEM: NUMBER OF ATOMS
50
ITEM: BOX BOUNDS pp pp pp
-5.0000000000000000e+01 5.0000000000000000e+01
-5.0000000000000000e+01 5.0000000000000000e+01
-5.0000000000000000e+01 5.0000000000000000e+01
ITEM: ATOMS id type x y z
1 1 24.5268 0.938296 -0.425449
2 1 23.5372 1.41921 -0.189266
3 1 22.5184 1.97991 -0.430312
4 1 21.7536 1.69423 0.386848
5 1 22.4706 1.02983 0.33331
6 1 23.0121 1.64385 0.859365
7 1 23.0468 0.947482 1.57256
8 1 22.4804 0.335794 1.72793
9 1 22.3233 -0.314882 1.96371
10 1 21.5853 -0.336221 1.4094
11 1 21.2432 0.576658 2.00981
12 1 21.4164 0.616733 1.0059
13 1 21.387 0.598303 0.0316553
14 1 21.0651 0.254722 -0.877424
15 1 20.0968 -0.219657 -0.811472
16 1 20.0968 -0.923426 -0.560797
17 1 19.9583 -1.11001 -1.61081
18 1 21.0159 -0.741973 -1.66111
19 1 21.0944 -1.71814 -1.48413
20 1 21.746 -0.999477 -0.842311
21 1 21.0506 -0.525197 -0.259221
22 1 21.0718 -1.39303 -0.124504
23 1 20.8742 -1.06845 0.490061
24 1 20.5487 -0.0391935 0.566198
25 1 20.3913 0.744268 1.09176
26 1 20.6087 1.64204 0.565785
27 1 19.7048 1.59006 0.491083
28 1 20.0455 2.09113 -0.492684
29 1 20.8328 2.09223 -1.09939
30 1 21.3251 1.31573 -1.05298
31 1 21.9586 1.01496 -0.76699
32 1 22.1719 0.160582 -0.5112
33 1 22.7203 -0.566867 -1.08542
34 1 22.28 -0.998336 -1.8939
35 1 22.5663 -1.57321 -1.07272
36 1 23.4383 -1.39265 -0.69105
37 1 24.5165 -1.78522 -0.544434
38 1 23.9392 -1.26132 0.128586
39 1 23.5634 -0.738664 0.944569
40 1 23.7408 0.0674548 1.47658
41 1 23.326 0.324719 0.765096
42 1 22.2061 0.140642 0.632304
43 1 21.7851 -0.523908 0.370775
44 1 22.4206 -1.04514 1.3077
45 1 22.7045 -1.69312 0.872166
46 1 22.7886 -1.25049 0.276958
47 1 22.9093 -0.404779 0.135024
48 1 23.1748 0.37939 -0.608698
49 1 23.8735 -0.385469 -0.643813
50 1 23.5883 -0.58938 -1.67504
ITEM: TIMESTEP
11000
ITEM: NUMBER OF ATOMS
50
ITEM: BOX BOUNDS pp pp pp
-5.0000000000000000e+01 5.0000000000000000e+01
-5.0000000000000000e+01 5.0000000000000000e+01
-5.0000000000000000e+01 5.0000000000000000e+01
ITEM: ATOMS id type x y z
1 1 21.8466 1.64662 0.179534
2 1 22.8512 1.2818 0.556464
3 1 22.4118 1.95692 0.91701
4 1 22.7155 1.32169 1.7378
5 1 21.8378 1.15803 1.32545
6 1 21.4785 0.555469 0.543994
7 1 20.3714 0.256316 0.304774
8 1 20.682 0.729073 -0.640901
9 1 21.0251 1.15982 -0.269597
10 1 21.2989 1.63807 -1.16234
11 1 20.4718 1.18456 -1.52246
12 1 19.6943 0.862297 -1.16397
13 1 20.0012 0.0527782 -0.792992
14 1 20.8942 -0.0709383 -1.40298
15 1 21.402 0.706232 -1.32543
16 1 22.1236 0.529983 -1.47149
17 1 23.0897 0.986629 -1.43905
18 1 23.0621 0.0193037 -0.884589
19 1 23.6775 0.0870517 -0.130544
20 1 23.5601 -0.974206 -0.560546
21 1 22.5377 -0.940085 -1.17902
22 1 21.6036 -1.01642 -1.39829
23 1 21.87 -0.321154 -2.06724
24 1 21.9782 0.170103 -2.82782
25 1 21.5627 0.970806 -2.40045
26 1 22.4112 1.66729 -1.69343
27 1 22.2657 2.02998 -0.894469
28 1 22.3588 1.10306 -0.53636
29 1 21.853 0.248978 -0.46859
30 1 22.4883 0.0731808 0.0126654
31 1 22.8109 0.428353 1.15604
32 1 23.4415 -0.466599 1.55793
33 1 24.2544 -0.498837 1.22467
34 1 23.9005 -0.670642 0.61344
35 1 23.1074 -1.29272 1.02551
36 1 23.2353 -1.38356 1.88382
37 1 22.8989 -2.29051 2.45423
38 1 22.3824 -2.1516 1.65652
39 1 21.8185 -1.53138 0.825471
40 1 21.194 -0.625881 1.00661
41 1 20.8456 -1.33426 0.489482
42 1 20.1988 -0.828589 -0.199734
43 1 20.9467 -0.31043 -0.42127
44 1 21.6685 -0.780106 -0.152847
45 1 22.2558 -1.57473 -0.223211
46 1 22.7454 -1.03555 0.0988561
47 1 22.3201 -0.531833 0.86691
48 1 22.5777 -0.470975 1.92823
49 1 21.9809 -1.10927 2.00217
50 1 22.4924 -0.61412 2.86204
ITEM: TIMESTEP
12000
ITEM: NUMBER OF ATOMS
50
ITEM: BOX BOUNDS pp pp pp
-5.0000000000000000e+01 5.0000000000000000e+01
-5.0000000000000000e+01 5.0000000000000000e+01
-5.0000000000000000e+01 5.0000000000000000e+01
ITEM: ATOMS id type x y z
1 1 21.7205 2.24523 1.28106
2 1 20.7266 2.09396 0.830106
3 1 19.9461 1.46319 0.924906
4 1 20.8375 0.82407 0.590892
5 1 20.6596 1.48599 -0.0253782
6 1 20.7346 0.595276 -0.683808
7 1 20.8361 -0.179218 -1.31643
8 1 21.9441 -0.0811517 -1.71109
9 1 21.4925 -1.18341 -1.88453
10 1 22.0612 -1.46552 -1.26816
11 1 23.2053 -1.42437 -1.35656
12 1 22.7771 -0.508523 -1.47498
13 1 23.2486 0.219845 -1.75723
14 1 24.2802 0.0718521 -1.2364
15 1 24.5417 -0.88731 -1.31089
16 1 23.8655 -0.815352 -0.614576
17 1 23.7597 0.0815587 -0.399968
18 1 23.4754 -0.667262 0.386153
19 1 24.5178 -0.893328 0.147464
20 1 25.1625 -0.295903 -0.326622
21 1 25.0986 0.381281 0.448881
22 1 24.3454 0.81848 0.85358
23 1 23.5196 0.647611 0.791358
24 1 23.8692 1.33726 -0.0206805
25 1 23.6053 1.21076 -0.917701
26 1 22.8749 1.0932 -1.14635
27 1 22.6106 1.08956 -0.232945
28 1 22.531 1.80438 0.433057
29 1 21.6051 1.51098 0.372582
30 1 22.0522 0.866081 0.774944
31 1 21.4498 1.16199 1.5137
32 1 20.8047 1.63454 1.98404
33 1 20.3004 0.631397 2.26776
34 1 20.732 0.344718 1.49817
35 1 19.913 -0.22081 1.68365
36 1 20.6472 -0.725273 1.05386
37 1 20.965 -1.7181 0.636572
38 1 20.5049 -2.27576 0.419608
39 1 19.9908 -2.58988 -0.383243
40 1 20.0414 -1.58774 -0.273791
41 1 21.2136 -1.83161 -0.692267
42 1 21.7949 -1.25263 -0.239497
43 1 22.6322 -1.17396 -0.367596
44 1 22.7365 -0.222324 -0.437474
45 1 22.5743 -0.0689697 0.419855
46 1 21.7541 0.00706281 -0.094044
47 1 21.4247 -0.13859 0.688987
48 1 20.9142 -0.727883 -0.188999
49 1 20.4523 -0.0469102 0.21134
50 1 19.749 -0.638492 0.148696
ITEM: TIMESTEP
13000
ITEM: NUMBER OF ATOMS
50
ITEM: BOX BOUNDS pp pp pp
-5.0000000000000000e+01 5.0000000000000000e+01
-5.0000000000000000e+01 5.0000000000000000e+01
-5.0000000000000000e+01 5.0000000000000000e+01
ITEM: ATOMS id type x y z
1 1 19.6464 0.0523176 -1.34309
2 1 20.6729 0.525747 -1.27009
3 1 21.1576 1.33223 -1.4154
4 1 21.5075 1.28715 -0.645812
5 1 21.2453 0.971856 0.0532196
6 1 22.1559 0.591407 -0.138056
7 1 23.2268 0.893159 0.087179
8 1 23.8785 0.497151 -0.39672
9 1 23.4653 0.630322 -1.35757
10 1 23.8169 -0.193686 -1.15994
11 1 24.4993 -0.431498 -1.72391
12 1 24.6954 -0.750031 -0.69523
13 1 24.4829 -0.56906 0.306385
14 1 24.2029 -0.397991 1.12732
15 1 23.5866 -0.189785 1.51065
16 1 22.7599 0.144359 2.0539
17 1 22.2653 -0.497936 1.32238
18 1 21.403 -0.610746 1.02806
19 1 20.7368 -0.336574 1.06543
20 1 20.5625 -1.32833 1.26821
21 1 20.9006 -0.847157 2.14703
22 1 21.0094 0.039329 1.99155
23 1 21.6947 0.408365 1.51217
24 1 21.7584 0.377992 0.760711
25 1 22.9589 0.509559 1.03963
26 1 23.4242 0.874297 1.35385
27 1 22.8762 1.77824 1.15634
28 1 22.3525 1.79429 0.34965
29 1 21.5591 2.02533 0.327046
30 1 20.6435 1.4853 0.829156
31 1 20.6768 0.753294 1.32448
32 1 20.2911 0.474578 0.398187
33 1 20.3683 -0.489052 -0.000444403
34 1 21.2036 0.0069251 -0.204411
35 1 20.9533 -0.515257 -0.934109
36 1 21.0625 -0.513636 -1.73171
37 1 20.288 -1.00952 -1.69491
38 1 20.9545 -1.60437 -1.17865
39 1 21.8102 -1.29462 -1.312
40 1 22.2703 -0.700925 -1.39852
41 1 23.0662 -0.912018 -1.42112
42 1 22.898 -0.123127 -0.725636
43 1 23.5315 -0.208335 0.293282
44 1 22.7256 -0.179873 0.321092
45 1 22.926 -1.2563 -0.0780704
46 1 21.9751 -1.31637 0.446551
47 1 21.1273 -1.1069 0.181353
48 1 21.9705 -0.63012 -0.283206
49 1 21.7051 0.19141 -1.07695
50 1 21.5511 0.368612 -2.06927
ITEM: TIMESTEP
14000
ITEM: NUMBER OF ATOMS
50
ITEM: BOX BOUNDS pp pp pp
-5.0000000000000000e+01 5.0000000000000000e+01
-5.0000000000000000e+01 5.0000000000000000e+01
-5.0000000000000000e+01 5.0000000000000000e+01
ITEM: ATOMS id type x y z
1 1 22.5571 2.07895 -0.3311
2 1 21.9062 1.98046 -0.0827554
3 1 21.4035 1.76827 0.520273
4 1 21.5388 0.68805 0.106957
5 1 22.4343 1.00095 -0.359494
6 1 22.699 0.710551 0.48415
7 1 23.3326 0.606886 1.44613
8 1 23.1007 -0.28408 1.32382
9 1 23.2311 -1.23184 1.36612
10 1 23.7299 -1.76053 0.965291
11 1 23.395 -2.04741 1.98802
12 1 22.4386 -2.05794 1.44565
13 1 22.0901 -0.849493 1.90776
14 1 22.2465 -0.721552 0.993871
15 1 21.3806 -0.547719 0.97923
16 1 21.8272 0.200376 0.955643
17 1 21.4286 0.522063 1.93508
18 1 20.4756 0.319039 1.72751
19 1 20.7976 0.445495 0.875173
20 1 20.3858 0.0506505 -0.102223
21 1 20.235 0.90782 0.0380516
22 1 19.5816 0.276354 -0.66262
23 1 20.2456 0.340108 -1.20269
24 1 20.7828 1.29264 -1.39472
25 1 20.9154 1.495 -0.522632
26 1 20.2393 2.12427 -1.08121
27 1 20.914 2.48985 -0.309058
28 1 21.5464 2.56432 -1.05794
29 1 21.7517 1.65313 -1.12646
30 1 21.7812 0.496278 -1.13879
31 1 21.0924 -0.170451 -0.860763
32 1 20.3043 -0.738654 -0.949195
33 1 21.0717 -1.13936 -1.51089
34 1 21.9068 -0.660428 -1.88238
35 1 22.6758 -0.144528 -1.55538
36 1 23.6162 0.290612 -1.37222
37 1 24.3615 -0.354475 -1.34663
38 1 24.7919 -0.364898 -0.546561
39 1 23.979 -0.716145 0.0246763
40 1 23.5332 -1.67859 -0.187226
41 1 22.8341 -2.136 0.37939
42 1 21.9657 -1.57188 0.380227
43 1 21.3689 -1.63095 -0.595082
44 1 20.9708 -1.07309 -0.221256
45 1 21.6966 -0.328145 -0.0123555
46 1 22.136 -0.750385 -0.776312
47 1 22.742 -0.871581 -0.239958
48 1 23.0011 -0.176934 0.0464731
49 1 23.8951 0.19553 0.432869
50 1 24.1652 -0.490585 1.10554
ITEM: TIMESTEP
15000
ITEM: NUMBER OF ATOMS
50
ITEM: BOX BOUNDS pp pp pp
-5.0000000000000000e+01 5.0000000000000000e+01
-5.0000000000000000e+01 5.0000000000000000e+01
-5.0000000000000000e+01 5.0000000000000000e+01
ITEM: ATOMS id type x y z
1 1 20.6625 1.75598 -0.0891374
2 1 20.7984 1.23367 0.860676
3 1 19.8912 1.58501 0.852567
4 1 19.4542 0.633147 1.3868
5 1 19.3175 0.164756 0.683189
6 1 20.1023 0.41121 0.419396
7 1 20.0757 -0.77079 0.528458
8 1 20.0639 -0.165373 1.48179
9 1 20.6223 0.496916 1.71875
10 1 21.257 0.291334 0.962665
11 1 21.4894 -0.622431 1.70999
12 1 21.0077 -0.841463 0.774654
13 1 21.2788 -1.05586 -0.105088
14 1 21.2008 -1.03774 -0.999623
15 1 20.4414 -0.402496 -0.835705
16 1 21.0546 -0.00127929 -0.0862717
17 1 20.8562 0.663607 -0.779544
18 1 20.5218 1.54583 -1.35579
19 1 21.6197 1.70058 -1.15209
20 1 22.41 1.20683 -1.75871
21 1 22.3432 0.401104 -2.34832
22 1 22.3619 -0.429249 -1.98639
23 1 22.2586 0.308846 -1.26047
24 1 23.1771 -0.048544 -1.48726
25 1 23.4315 0.691515 -1.09156
26 1 23.7109 1.56271 -0.689827
27 1 22.961 2.00819 -0.302238
28 1 22.5429 1.33233 -0.690033
29 1 21.8443 0.547487 -0.329606
30 1 22.8451 0.721686 0.171961
31 1 22.9977 -0.146625 -0.358455
32 1 23.9131 -0.547528 -0.670355
33 1 24.0073 -1.13221 0.557605
34 1 24.8214 -0.407953 0.60637
35 1 24.3358 0.431085 0.460182
36 1 23.3445 -0.0686347 0.67961
37 1 23.3809 -0.468886 1.44288
38 1 23.2668 -1.5505 1.5528
39 1 22.294 -1.12511 1.28147
40 1 23.0105 -1.0955 0.303506
41 1 23.611 -1.63283 -0.439521
42 1 23.006 -2.55996 -0.32816
43 1 22.9211 -1.99796 -1.27748
44 1 22.8838 -1.08349 -1.03705
45 1 22.1672 -1.50858 -0.426189
46 1 22.0694 -0.524295 -0.626251
47 1 22.1279 -0.311276 0.326667
48 1 22.412 -0.0257857 1.05405
49 1 22.3248 0.684488 1.81643
50 1 22.0025 1.18405 0.878675
ITEM: TIMESTEP
16000
ITEM: NUMBER OF ATOMS
50
ITEM: BOX BOUNDS pp pp pp
-5.0000000000000000e+01 5.0000000000000000e+01
-5.0000000000000000e+01 5.0000000000000000e+01
-5.0000000000000000e+01 5.0000000000000000e+01
ITEM: ATOMS id type x y z
1 1 20.2129 -0.434667 -1.06392
2 1 21.0331 -0.744456 -1.44787
3 1 21.4367 -0.100963 -2.05425
4 1 22.3031 0.543419 -1.97065
5 1 22.9032 1.39884 -2.22715
6 1 21.8488 1.45588 -2.61209
7 1 21.4071 2.06898 -1.72916
8 1 21.2995 1.09464 -1.8452
9 1 20.6961 1.40763 -1.02977
10 1 20.7205 0.512568 -1.14814
11 1 21.5256 0.122772 -0.868441
12 1 21.1047 -0.557027 -0.409729
13 1 20.7118 -1.41277 -0.652892
14 1 21.3366 -2.07174 -0.0891351
15 1 21.8279 -1.25069 -0.589376
16 1 22.0095 -1.10913 -1.37242
17 1 22.6347 -0.398715 -1.60152
18 1 22.5638 0.11181 -0.727309
19 1 23.597 0.354312 -1.11552
20 1 24.2208 1.02 -1.37612
21 1 23.7506 1.05772 -0.269442
22 1 22.8462 0.814663 0.0196515
23 1 23.5392 0.791378 0.7088
24 1 22.8245 1.35241 0.900925
25 1 22.3188 0.693517 1.09201
26 1 21.8648 1.23851 0.431333
27 1 21.768 1.89752 1.27006
28 1 20.7808 1.36872 1.32985
29 1 20.8245 0.573929 1.33614
30 1 21.6749 1.02022 1.8623
31 1 21.7568 0.0519471 1.95507
32 1 20.7197 -0.780435 2.28216
33 1 21.6664 -1.12841 2.12065
34 1 21.2136 -1.99533 2.35516
35 1 21.7654 -1.69603 3.16789
36 1 22.5104 -1.93644 2.41554
37 1 22.0037 -2.31255 1.72309
38 1 21.7271 -1.6013 0.986364
39 1 22.4964 -1.18766 1.33762
40 1 23.2776 -1.59203 0.724741
41 1 23.9073 -1.06658 0.0481747
42 1 23.8231 -0.403981 0.802692
43 1 23.3362 -0.155061 -0.0785342
44 1 22.8637 -0.87562 -0.170966
45 1 22.5265 -0.420449 0.512444
46 1 21.7309 0.228618 0.188839
47 1 20.8938 0.419107 0.0114188
48 1 21.5534 1.1411 -0.531463
49 1 22.2348 1.44582 -1.34586
50 1 22.907 1.046 -1.25599
ITEM: TIMESTEP
17000
ITEM: NUMBER OF ATOMS
50
ITEM: BOX BOUNDS pp pp pp
-5.0000000000000000e+01 5.0000000000000000e+01
-5.0000000000000000e+01 5.0000000000000000e+01
-5.0000000000000000e+01 5.0000000000000000e+01
ITEM: ATOMS id type x y z
1 1 22.4377 -1.00157 -2.07796
2 1 22.3787 0.0525584 -2.09204
3 1 22.5998 0.908309 -1.84253
4 1 22.5223 1.5414 -2.34802
5 1 21.583 1.0228 -2.1592
6 1 21.481 1.21824 -1.25799
7 1 22.2337 1.62827 -1.07886
8 1 22.8721 0.983042 -0.716349