ITEM: TIMESTEP
0
ITEM: NUMBER OF ATOMS
50
ITEM: BOX BOUNDS pp pp pp
-5.0000000000000000e+01 5.0000000000000000e+01
-5.0000000000000000e+01 5.0000000000000000e+01
-5.0000000000000000e+01 5.0000000000000000e+01
ITEM: ATOMS id type x y z
1 1 -2.36723 0 0
2 1 -1.36844 0 0
3 1 -0.370864 0 0
4 1 0.626597 0 0
5 1 1.62395 0 0
6 1 2.62119 0 0
7 1 3.61833 0 0
8 1 4.61536 0 0
9 1 5.61228 0 0
10 1 6.60909 0 0
11 1 7.6058 0 0
12 1 8.60239 0 0
13 1 9.59888 0 0
14 1 10.5953 0 0
15 1 11.5915 0 0
16 1 12.5877 0 0
17 1 13.5837 0 0
18 1 14.5797 0 0
19 1 15.5755 0 0
20 1 16.5713 0 0
21 1 17.5667 0 0
22 1 18.563 0 0
23 1 19.5593 0 0
24 1 20.5557 0 0
25 1 21.552 0 0
26 1 22.548 0 0
27 1 23.5443 0 0
28 1 24.5407 0 0
29 1 25.537 0 0
30 1 26.5333 0 0
31 1 27.5287 0 0
32 1 28.5245 0 0
33 1 29.5203 0 0
34 1 30.5163 0 0
35 1 31.5123 0 0
36 1 32.5085 0 0
37 1 33.5047 0 0
38 1 34.5011 0 0
39 1 35.4976 0 0
40 1 36.4942 0 0
41 1 37.4909 0 0
42 1 38.4877 0 0
43 1 39.4846 0 0
44 1 40.4817 0 0
45 1 41.4788 0 0
46 1 42.476 0 0
47 1 43.4734 0 0
48 1 44.4709 0 0
49 1 45.4684 0 0
50 1 46.4672 0 0
ITEM: TIMESTEP
1000
ITEM: NUMBER OF ATOMS
50
ITEM: BOX BOUNDS pp pp pp
-5.0000000000000000e+01 5.0000000000000000e+01
-5.0000000000000000e+01 5.0000000000000000e+01
-5.0000000000000000e+01 5.0000000000000000e+01
ITEM: ATOMS id type x y z
1 1 7.53766 0.347708 0.731127
2 1 8.38145 0.714209 0.211098
3 1 8.20756 1.34915 0.920607
4 1 9.14972 1.26355 0.909582
5 1 8.55328 1.75494 0.0900978
6 1 9.32489 1.25319 -0.296563
7 1 9.78037 0.517904 -0.78659
8 1 9.90465 0.440973 0.197156
9 1 10.5641 0.177841 0.960332
10 1 10.9044 0.489469 0.0374867
11 1 11.0624 -0.0255152 -0.848924
12 1 12.0281 -0.0707447 -0.649411
13 1 12.9445 -0.219891 -0.755147
14 1 13.2914 -0.792117 -1.49445
15 1 13.8591 -0.804846 -0.679882
16 1 14.3869 -0.00598439 -0.375514
17 1 15.1556 -0.387036 -0.881022
18 1 16.0986 -0.6292 -0.379083
19 1 17.0827 -0.40869 -0.51622
20 1 17.9916 -0.308389 -0.0864642
21 1 18.8935 -0.356261 -0.564277
22 1 19.1101 -0.570056 0.390855
23 1 19.6874 -1.1672 -0.148521
24 1 20.4744 -1.26671 0.391383
25 1 21.3176 -1.49804 0.807751
26 1 21.3816 -1.33051 -0.165899
27 1 22.3822 -1.52037 -0.141284
28 1 23.3598 -1.30441 -0.526325
29 1 24.1015 -1.64686 -1.0991
30 1 24.9007 -1.10504 -1.28851
31 1 25.9269 -1.19391 -1.28426
32 1 26.9438 -0.921384 -1.34183
33 1 27.827 -0.606581 -1.37068
34 1 28.7139 -0.197747 -1.15964
35 1 29.5716 0.0677698 -0.73038
36 1 30.1628 0.873624 -0.524818
37 1 30.7066 0.522533 0.233023
38 1 31.2923 0.00959805 -0.287439
39 1 31.5087 0.93348 -0.52662
40 1 32.362 0.86935 -0.0471833
41 1 33.2678 0.551992 -0.177638
42 1 34.1203 0.494291 0.39684
43 1 35.0589 0.377669 0.911707
44 1 35.1002 1.38431 0.809066
45 1 35.8253 1.29762 1.63669
46 1 36.3445 0.965178 0.778603
47 1 36.1157 0.156412 1.26778
48 1 36.8693 0.743642 1.71191
49 1 36.2369 0.583029 2.44163
50 1 36.7277 0.198073 3.29896
ITEM: TIMESTEP
2000
ITEM: NUMBER OF ATOMS
50
ITEM: BOX BOUNDS pp pp pp
-5.0000000000000000e+01 5.0000000000000000e+01
-5.0000000000000000e+01 5.0000000000000000e+01
-5.0000000000000000e+01 5.0000000000000000e+01
ITEM: ATOMS id type x y z
1 1 19.105 0.951187 0.223877
2 1 18.3182 1.15121 0.722305
3 1 19.0994 1.81234 1.08095
4 1 19.7014 1.9101 0.405242
5 1 20.419 1.28927 0.339436
6 1 20.6589 0.73151 -0.3924
7 1 20.0021 0.823466 -1.0002
8 1 19.0203 1.07877 -0.797629
9 1 18.9107 0.159585 -0.368751
10 1 18.41 -0.12727 -1.24311
11 1 18.0474 -0.335594 -0.404946
12 1 18.464 -1.0784 -0.924902
13 1 19.2719 -0.730888 -0.867262
14 1 19.0676 -0.990315 -0.0212733
15 1 18.8526 -0.0283212 0.663935
16 1 19.7709 0.0465231 0.284251
17 1 20.2898 -0.404685 -0.173269
18 1 20.9207 -1.03322 0.529391
19 1 21.016 -1.51645 -0.308479
20 1 21.3057 -0.592839 -0.813882
21 1 20.5861 -0.26723 -1.38587
22 1 21.2542 -0.606839 -2.30492
23 1 21.2069 -1.44182 -1.86472
24 1 22.2299 -1.72442 -1.65254
25 1 22.4344 -0.877703 -2.04661
26 1 21.9835 -0.325384 -1.42747
27 1 22.9321 -0.13364 -1.49632
28 1 23.3043 -0.890401 -0.93683
29 1 22.3809 -0.999085 -0.693317
30 1 22.6055 -0.0932507 -0.3393
31 1 23.0039 0.662584 -0.71526
32 1 23.8641 0.0248759 -0.768155
33 1 23.6709 -0.706661 0.0906663
34 1 24.2879 -1.30699 0.772643
35 1 25.2504 -1.17515 0.284794
36 1 25.3374 -1.07937 -0.68629
37 1 25.1303 -0.276184 -0.592742
38 1 25.0875 0.317125 0.111168
39 1 24.492 -0.259175 0.559728
40 1 23.5445 0.33241 0.617715
41 1 24.4861 0.850441 0.644773
42 1 24.448 0.998072 1.65374
43 1 24.0337 0.290935 1.6208
44 1 25.1194 -0.0446344 1.50612
45 1 25.9474 0.538238 1.05859
46 1 25.5971 1.33966 1.5374
47 1 25.6137 0.57472 2.16572
48 1 24.6247 0.653631 2.63217
49 1 23.9218 1.29451 2.77847
50 1 23.4698 1.21477 1.94253
ITEM: TIMESTEP
3000
ITEM: NUMBER OF ATOMS
50
ITEM: BOX BOUNDS pp pp pp
-5.0000000000000000e+01 5.0000000000000000e+01
-5.0000000000000000e+01 5.0000000000000000e+01
-5.0000000000000000e+01 5.0000000000000000e+01
ITEM: ATOMS id type x y z
1 1 25.3567 -0.470135 -0.933594
2 1 25.0056 0.125675 -1.6238
3 1 24.1359 0.451535 -1.57003
4 1 23.8641 0.620762 -0.702983
5 1 23.0954 0.368286 -1.2602
6 1 22.4966 1.05705 -0.852169
7 1 22.7548 1.74585 -1.4896
8 1 23.1416 2.07704 -0.611936
9 1 22.4956 2.73925 -0.834772
10 1 21.4636 2.76786 -0.921504
11 1 21.0607 1.92493 -1.00792
12 1 20.7204 1.20158 -0.937769
13 1 20.9862 1.2341 -0.0157954
14 1 22.0492 1.69769 0.047299
15 1 22.2621 0.941158 0.781237
16 1 21.6819 0.426825 -0.0903235
17 1 22.5436 -0.126103 -0.379495
18 1 22.5346 -1.19513 -0.0138897
19 1 22.196 -1.23522 -0.790576
20 1 21.392 -1.30069 -0.353716
21 1 21.4729 -0.507563 -0.953841
22 1 21.9197 0.0688078 -1.54941
23 1 21.7222 -0.311036 -2.20891
24 1 21.6886 -1.41096 -2.11499
25 1 22.5056 -1.37002 -1.78241
26 1 23.1148 -0.530459 -1.94934
27 1 23.6522 -0.54708 -1.1005
28 1 23.367 -1.42626 -0.667502
29 1 24.3375 -1.14536 -0.37319
30 1 23.7829 -1.86351 0.279966
31 1 23.5992 -0.873003 0.430103
32 1 22.6622 -0.54134 0.851818
33 1 22.931 -1.44672 1.10132
34 1 23.5969 -0.766466 1.42841
35 1 22.8337 -0.650504 2.03384
36 1 22.6528 -0.0535018 2.78825
37 1 23.042 0.298729 1.87201
38 1 21.9776 0.0227751 1.74751
39 1 21.5852 0.0234709 2.61888
40 1 21.2352 0.721412 2.15197
41 1 20.949 -0.343733 1.78499
42 1 20.6673 0.249667 1.01404
43 1 19.8759 -0.112359 1.37683
44 1 19.0665 -0.102811 2.10121
45 1 19.2722 -0.929629 1.472
46 1 19.8271 -1.14769 0.610523
47 1 20.3042 -0.403153 0.0831882
48 1 19.6003 0.33973 0.38746
49 1 18.841 -0.0901954 0.580368
50 1 19.1812 -0.203553 -0.453063
ITEM: TIMESTEP
4000
ITEM: NUMBER OF ATOMS
50
ITEM: BOX BOUNDS pp pp pp
-5.0000000000000000e+01 5.0000000000000000e+01
-5.0000000000000000e+01 5.0000000000000000e+01
-5.0000000000000000e+01 5.0000000000000000e+01
ITEM: ATOMS id type x y z
1 1 25.5938 2.05619 2.91702
2 1 25.0514 1.25227 3.0376
3 1 24.139 0.64043 2.8509
4 1 23.3495 0.397709 2.28079
5 1 23.1756 1.37459 2.82244
6 1 23.5657 1.71567 1.92779
7 1 23.0803 1.89023 1.24882
8 1 22.2769 1.62304 0.815833
9 1 22.8636 0.854751 1.08825
10 1 23.8368 0.874068 0.694685
11 1 23.4209 1.51252 -0.0661865
12 1 22.7519 0.555739 0.130836
13 1 22.7367 0.0794224 -0.791129
14 1 22.6105 -0.662517 -0.232138
15 1 22.0624 -1.36405 0.140359
16 1 21.453 -0.755964 0.104665
17 1 21.0705 -1.70841 0.557483
18 1 21.4234 -2.53205 0.292239
19 1 21.0932 -2.1176 -0.50994
20 1 22.1069 -2.21862 -0.898647
21 1 22.0392 -1.81947 -1.78254
22 1 22.8262 -1.47167 -1.14194
23 1 23.4979 -0.819901 -1.64006
24 1 23.856 -1.76217 -1.67295
25 1 23.9348 -1.68227 -0.774089
26 1 23.7088 -0.74774 -0.398245
27 1 23.3366 -0.451209 0.645416
28 1 22.7584 -0.142256 1.36864
29 1 22.6717 -0.33518 2.2293
30 1 22.0688 0.545376 1.9968
31 1 22.5262 1.32581 1.88253
32 1 21.6715 1.73966 2.3496
33 1 20.9765 0.953351 2.4729
34 1 21.756 0.745829 3.09278
35 1 21.4086 -0.227231 2.67751
36 1 20.9935 -0.241618 1.70608
37 1 21.5311 0.628047 1.20024
38 1 21.5783 0.185826 0.418587
39 1 21.8728 0.0680652 -0.39393
40 1 20.7816 -0.128284 -0.891357
41 1 21.5717 -0.227356 -1.52541
42 1 21.3287 0.741753 -1.77064
43 1 20.9152 0.153954 -2.45564
44 1 20.7015 0.695916 -3.23617
45 1 20.0682 1.03671 -2.55775
46 1 19.8279 0.131785 -2.98857
47 1 19.4146 -0.427075 -3.79581
48 1 19.144 -0.448206 -4.90212
49 1 18.3739 -0.432656 -4.38377
50 1 17.6977 -1.0552 -4.14108
ITEM: TIMESTEP
5000
ITEM: NUMBER OF ATOMS
50
ITEM: BOX BOUNDS pp pp pp
-5.0000000000000000e+01 5.0000000000000000e+01
-5.0000000000000000e+01 5.0000000000000000e+01
-5.0000000000000000e+01 5.0000000000000000e+01
ITEM: ATOMS id type x y z
1 1 23.3187 0.93746 1.41427
2 1 22.5839 1.3715 1.86036
3 1 21.709 1.26248 1.43776
4 1 21.5412 0.224857 1.11051
5 1 21.6856 0.755136 0.210401
6 1 22.5387 0.404101 0.140429
7 1 22.1277 0.74683 -0.820905
8 1 22.5643 1.53495 -0.450648
9 1 22.7041 1.70674 0.610538
10 1 23.7249 1.633 0.279228
11 1 23.7132 1.69526 -0.651493
12 1 24.4431 1.04296 -0.292038
13 1 23.685 0.644893 -0.855438
14 1 22.8855 -0.15845 -0.813205
15 1 22.1878 -0.474877 -0.0365064
16 1 23.0883 -0.770819 0.468172
17 1 23.419 0.0678505 0.776992
18 1 23.8345 -0.433124 1.41229
19 1 23.4997 -1.08877 2.15223
20 1 24.1405 -1.37409 1.70573
21 1 23.5085 -2.15936 1.32072
22 1 22.4411 -2.49833 1.02061
23 1 22.5796 -1.61676 0.832483
24 1 21.9371 -0.947155 1.10811
25 1 21.3747 -1.19071 0.339555
26 1 20.9156 -1.15896 1.06537
27 1 21.3492 -1.89724 1.72608
28 1 20.8486 -1.05791 2.21776
29 1 20.3352 -1.95777 2.37549
30 1 20.2177 -1.352 3.25948
31 1 20.569 -0.403182 3.19401
32 1 20.0603 0.0470967 2.37911
33 1 20.8503 0.487016 2.18632
34 1 20.3278 0.117982 1.31984
35 1 19.8172 -0.907679 1.08557
36 1 20.0028 -0.600048 0.15713
37 1 20.8183 -0.861193 -0.40581
38 1 21.0593 0.174786 -0.810832
39 1 21.4796 0.486427 -1.71617
40 1 20.6567 0.477045 -1.92359
41 1 20.3574 0.170321 -2.79563
42 1 20.6719 1.10553 -2.95235
43 1 21.7052 1.50994 -3.09032
44 1 22.0087 1.84701 -2.18409
45 1 22.8796 1.81401 -2.88614
46 1 23.029 0.990981 -2.42566
47 1 22.5739 0.697424 -3.25352
48 1 22.8304 -0.274084 -2.98129
49 1 22.3708 -0.172681 -3.89924
50 1 23.5295 -0.598394 -3.92167
ITEM: TIMESTEP
6000
ITEM: NUMBER OF ATOMS
50
ITEM: BOX BOUNDS pp pp pp
-5.0000000000000000e+01 5.0000000000000000e+01
-5.0000000000000000e+01 5.0000000000000000e+01
-5.0000000000000000e+01 5.0000000000000000e+01
ITEM: ATOMS id type x y z
1 1 19.1279 0.231882 0.0713617
2 1 19.9087 0.531793 -0.168651
3 1 20.7977 0.836693 -0.408833
4 1 20.8729 -0.109131 -0.0250166
5 1 21.2385 -0.717546 0.634187
6 1 22.2132 -0.673976 0.372501
7 1 22.8578 -0.0273051 0.752321
8 1 22.2663 0.275024 -0.100379
9 1 21.8654 -0.082171 -0.862925
10 1 22.2787 0.606668 -1.2831
11 1 21.8916 1.17037 -0.421948
12 1 22.1629 2.07584 -0.139338
13 1 21.2674 1.80057 0.313154
14 1 21.8378 1.07 0.595231
15 1 21.7997 0.225118 0.99274
16 1 20.8762 0.179695 1.35262
17 1 20.0483 0.406685 0.883861
18 1 19.9506 -0.283624 1.61429
19 1 20.6083 0.0364077 2.56673
20 1 21.1295 -0.840944 2.81029
21 1 22.1457 -1.08231 2.4456
22 1 21.9294 -0.714692 1.59002
23 1 22.4068 -1.4897 1.36394
24 1 21.484 -1.87383 1.36592
25 1 21.5713 -2.6392 0.540313
26 1 22.3168 -2.18137 -0.0414952
27 1 21.3026 -1.98606 -0.400719
28 1 20.3974 -1.98814 -0.0433622
29 1 20.0562 -1.09282 0.625585
30 1 19.0987 -0.629659 0.751858
31 1 19.357 -1.2149 -0.137944
32 1 19.9407 -0.49863 -0.536287
33 1 20.6271 -1.12253 -1.02628
34 1 19.8221 -0.514281 -1.52685
35 1 20.8048 -0.102604 -1.58374
36 1 21.2973 -0.928039 -1.98171
37 1 22.2222 -0.481428 -2.17199
38 1 22.8644 0.226373 -2.39014
39 1 22.8737 1.15508 -2.23488
40 1 23.4072 1.07601 -1.29564
41 1 24.0063 0.514645 -0.691384
42 1 24.0656 -0.0512699 0.0629976
43 1 24.8174 -0.484341 -0.639392
44 1 25.4633 0.160148 -0.606549
45 1 26.2121 0.680834 -0.424053
46 1 25.7244 1.20055 -0.897599
47 1 24.7924 1.58821 -0.765834
48 1 25.4454 2.37617 -0.449072
49 1 25.8394 2.41455 0.401799
50 1 25.2087 2.97117 1.14777
ITEM: TIMESTEP
7000
ITEM: NUMBER OF ATOMS
50
ITEM: BOX BOUNDS pp pp pp
-5.0000000000000000e+01 5.0000000000000000e+01
-5.0000000000000000e+01 5.0000000000000000e+01
-5.0000000000000000e+01 5.0000000000000000e+01
ITEM: ATOMS id type x y z
1 1 23.7555 -0.446791 -0.0156314
2 1 23.632 0.0596764 -0.789288
3 1 23.1994 0.740814 -0.208002
4 1 22.8333 0.0388446 -0.157817
5 1 21.9227 -0.288151 0.296867
6 1 22.0788 0.586475 0.284784
7 1 21.4938 1.1309 0.916281
8 1 22.1313 1.80901 0.446826
9 1 21.1467 2.07886 0.380785
10 1 21.0984 1.32558 -0.183794
11 1 21.2479 0.624975 -0.845489
12 1 21.7273 0.741624 -1.68505
13 1 21.0861 1.40887 -1.6445
14 1 20.0493 1.52596 -2.13587
15 1 20.0305 1.39867 -1.13349
16 1 19.3989 0.926527 -0.474221
17 1 19.2699 0.250971 -1.08409
18 1 20.0111 -0.078283 -1.53279
19 1 20.1823 -0.197167 -0.683417
20 1 20.7784 -0.0511072 0.227843
21 1 20.9533 -0.934198 0.212956
22 1 21.3014 -0.885146 1.12526
23 1 21.7154 -1.75498 1.40344
24 1 21.5144 -2.17498 0.453574
25 1 21.497 -2.82585 -0.4445
26 1 22.229 -2.1842 -0.540084
27 1 21.4767 -1.50871 -1.26756
28 1 20.7457 -1.0026 -1.11898
29 1 20.6363 -1.40422 -2.18496
30 1 21.4497 -1.88155 -2.53111
31 1 22.3158 -1.82169 -2.12145
32 1 22.5004 -0.889963 -2.85479
33 1 22.0361 -0.179098 -2.23893
34 1 22.2487 -0.357265 -1.23238
35 1 22.1131 -1.04397 -0.544531
36 1 22.6394 -1.1632 0.199863
37 1 22.8451 -0.694981 0.785477
38 1 22.9646 -1.37528 1.57471
39 1 22.2137 -0.731785 1.66052
40 1 22.8875 -0.748308 2.47833
41 1 23.138 -0.335538 1.66704
42 1 23.4116 0.305804 0.88459
43 1 22.7254 0.627312 1.15359
44 1 22.6833 1.54988 1.46655
45 1 23.545 1.10272 1.88075
46 1 23.9812 1.3232 0.787341
47 1 23.7641 2.02197 1.27593
48 1 24.3252 1.84806 2.00607
49 1 24.5375 1.42821 2.85625
50 1 25.0317 2.10412 3.22709
ITEM: TIMESTEP
8000
ITEM: NUMBER OF ATOMS
50
ITEM: BOX BOUNDS pp pp pp
-5.0000000000000000e+01 5.0000000000000000e+01
-5.0000000000000000e+01 5.0000000000000000e+01
-5.0000000000000000e+01 5.0000000000000000e+01
ITEM: ATOMS id type x y z
1 1 22.3531 -0.460451 -0.300995
2 1 21.8827 0.0336221 0.39954
3 1 21.5429 0.829884 0.59907
4 1 21.7648 1.54082 -0.167212
5 1 21.4001 1.42923 -1.0502
6 1 21.6407 0.661898 -0.479788
7 1 22.483 0.789987 -1.01822
8 1 22.5262 1.66126 -1.1819
9 1 22.8048 1.867 -0.346196
10 1 22.6511 1.22266 0.421778
11 1 23.3405 1.9224 0.663522
12 1 23.4181 1.14479 1.2021
13 1 23.7107 0.686378 2.00825
14 1 24.1272 0.228105 1.26964
15 1 24.3879 1.04622 0.837855
16 1 24.121 1.23732 -0.162692
17 1 24.6717 0.53319 -0.21299
18 1 23.9581 -0.186394 -0.245966
19 1 23.2099 0.360449 -0.38766
20 1 22.8832 -0.296457 -1.30522
21 1 22.3658 0.0582342 -2.00448
22 1 21.4237 -0.282908 -1.87873
23 1 21.2331 -1.18359 -1.84317
24 1 20.703 -1.75786 -2.5979
25 1 20.3478 -2.55597 -2.45907
26 1 20.2346 -3.3043 -3.14635
27 1 21.2069 -3.4366 -3.56409
28 1 21.5796 -2.95124 -2.59487
29 1 21.3644 -2.34577 -2.04515
30 1 21.7593 -2.3933 -1.13618
31 1 21.8748 -2.53359 -0.105129
32 1 22.768 -1.88507 0.123159
33 1 22.8716 -1.29985 -0.744428
34 1 21.952 -1.03434 -1.0951
35 1 21.3655 -1.60508 -0.437963
36 1 20.6099 -1.12494 -0.506726
37 1 21.0801 -0.247336 -0.602363
38 1 20.6552 -0.338475 0.364557
39 1 19.7745 0.27492 0.858458
40 1 20.7426 0.316465 1.25897
41 1 21.1935 -0.329592 2.20522
42 1 21.9374 -0.572114 1.73112
43 1 22.5478 -0.497203 0.963503
44 1 22.2256 0.392583 1.32186
45 1 21.6565 1.21219 1.52193
46 1 21.8692 1.95142 2.17575
47 1 21.6261 2.06298 3.14108
48 1 22.0202 2.72078 3.75284
49 1 21.6168 3.56978 3.66969
50 1 21.0169 2.86788 3.13085
ITEM: TIMESTEP
9000
ITEM: NUMBER OF ATOMS
50
ITEM: BOX BOUNDS pp pp pp
-5.0000000000000000e+01 5.0000000000000000e+01
-5.0000000000000000e+01 5.0000000000000000e+01
-5.0000000000000000e+01 5.0000000000000000e+01
ITEM: ATOMS id type x y z
1 1 23.097 -0.363237 -0.289862
2 1 22.859 0.437977 0.133675
3 1 22.6726 1.01757 -0.456641
4 1 23.5178 1.5641 -0.607626
5 1 22.9724 1.46875 0.311008
6 1 22.2335 2.2727 0.565612
7 1 23.1147 2.3397 1.08754
8 1 23.7564 1.77253 1.18218
9 1 23.3988 0.866146 1.22506
10 1 22.2842 1.16524 1.28909
11 1 21.6632 1.86915 1.58675
12 1 21.7037 1.76886 2.55706
13 1 22.4857 1.31673 2.54254
14 1 21.6902 0.761169 2.35283
15 1 22.009 0.0345958 1.92824
16 1 21.1246 -0.0569323 1.92553
17 1 20.7726 -0.719386 1.27126
18 1 21.547 -0.543746 1.23515
19 1 21.427 -1.38633 1.75755
20 1 21.2936 -1.57119 0.836598
21 1 21.5333 -1.75442 -0.0463957
22 1 22.2126 -1.11806 0.331863
23 1 23.0237 -1.30233 0.783627
24 1 23.1003 -2.30433 1.21541
25 1 22.2787 -2.24253 1.4909
26 1 22.1388 -2.34075 0.584809
27 1 22.7283 -2.11132 0.0981692
28 1 22.7475 -1.33744 -0.518378
29 1 21.8518 -1.49203 -1.0289
30 1 22.2253 -2.09524 -1.68519
31 1 22.0931 -3.12923 -2.04663
32 1 22.3179 -2.57789 -2.87243
33 1 22.0616 -1.67838 -3.08844
34 1 21.7846 -1.24237 -2.13436
35 1 22.2689 -0.480797 -2.56021
36 1 21.7597 -0.191178 -3.40785
37 1 22.1503 0.751873 -2.94946
38 1 22.4458 1.61949 -2.5315
39 1 22.309 1.81171 -1.60199
40 1 21.7803 0.993083 -1.87292
41 1 21.0157 0.480787 -1.57295
42 1 21.5863 0.813579 -0.847913
43 1 21.9882 0.0686284 -0.367584
44 1 21.2366 -0.0413796 0.401491
45 1 21.1189 0.71102 0.845049
46 1 20.575 0.903131 1.6426
47 1 20.4638 1.39007 0.835681
48 1 20.8324 1.1293 -0.0857632
49 1 21.3847 1.79852 0.294503
50 1 21.8638 0.954096 0.261198
ITEM: TIMESTEP
10000
ITEM: NUMBER OF ATOMS
50
ITEM: BOX BOUNDS pp pp pp
-5.0000000000000000e+01 5.0000000000000000e+01
-5.0000000000000000e+01 5.0000000000000000e+01
-5.0000000000000000e+01 5.0000000000000000e+01
ITEM: ATOMS id type x y z
1 1 22.0208 0.233766 0.231163
2 1 21.4856 -0.551857 0.516002
3 1 22.2975 -1.30783 0.632194
4 1 22.4559 -0.246905 0.95141
5 1 22.8264 -0.243793 1.75112
6 1 22.0604 0.25835 2.09126
7 1 21.7863 0.515665 1.26457
8 1 20.7845 0.557744 1.71842
9 1 21.002 1.12523 1.08689
10 1 20.0875 1.54359 1.46777
11 1 19.2037 1.33708 1.4298
12 1 18.3615 1.52502 1.74129
13 1 18.3821 0.826448 0.988374
14 1 19.0123 0.0655843 0.887695
15 1 19.6889 0.839584 0.676581
16 1 20.2248 -0.00174353 0.514183
17 1 20.884 0.503897 0.16219
18 1 20.7476 1.07118 -0.469833
19 1 21.0428 0.461635 -1.1421
20 1 21.1785 -0.485703 -0.429187
21 1 21.2009 -1.51627 0.104855
22 1 20.3322 -1.35674 -0.285294
23 1 20.446 -0.782786 -1.16915
24 1 21.218 -0.623399 -1.56513
25 1 21.4988 -1.31679 -0.95949
26 1 21.4937 -1.59216 -1.86483
27 1 21.905 -2.44506 -2.19254
28 1 22.5963 -2.1626 -1.6197
29 1 22.6651 -1.35627 -1.18142
30 1 22.4155 -1.07033 -0.286062
31 1 23.448 -0.801088 -0.181849
32 1 23.7049 -0.938339 0.706551
33 1 24.6849 -0.706666 1.05379
34 1 25.6005 -0.439201 0.564182
35 1 26.0239 -0.430657 -0.265786
36 1 25.0942 -0.784781 -0.790489
37 1 24.439 -0.000639359 -0.833139
38 1 24.6313 -0.169259 0.0389235
39 1 24.2836 0.73092 0.269055
40 1 23.5899 1.25071 0.942893
41 1 22.9716 1.26501 0.163229
42 1 23.0904 0.363934 -0.0193577
43 1 22.416 -0.0308159 -0.712906
44 1 22.276 0.436349 -1.56208
45 1 23.2082 -0.00670908 -1.74038
46 1 23.3784 0.545204 -1.10992
47 1 22.7291 1.33556 -0.992047
48 1 21.9167 0.9798 -0.532466
49 1 21.6885 2.04363 -0.420606
50 1 22.02 1.5525 0.371394
ITEM: TIMESTEP
11000
ITEM: NUMBER OF ATOMS
50
ITEM: BOX BOUNDS pp pp pp
-5.0000000000000000e+01 5.0000000000000000e+01
-5.0000000000000000e+01 5.0000000000000000e+01
-5.0000000000000000e+01 5.0000000000000000e+01
ITEM: ATOMS id type x y z
1 1 22.2998 0.0333104 0.0795209
2 1 21.9093 -0.469002 -0.691919
3 1 21.2252 -0.925675 -0.75195
4 1 21.4614 -0.688054 0.322144
5 1 20.5052 -0.393261 -0.229298
6 1 20.6342 -0.142239 0.762233
7 1 21.0567 0.408046 0.0772599
8 1 20.4101 1.09898 0.613705
9 1 20.4106 0.921977 -0.425704
10 1 20.782 0.301733 -1.09289
11 1 20.2281 0.188366 -1.87855
12 1 20.2348 1.12871 -2.20616
13 1 20.9396 0.957121 -2.96796
14 1 21.0938 0.0389793 -2.87205
15 1 21.9304 -0.542251 -3.0985
16 1 21.6694 0.350066 -3.61304
17 1 21.9099 0.745958 -2.78157
18 1 21.6148 0.984648 -1.78386
19 1 21.8984 0.655408 -0.872027
20 1 21.6605 -0.150354 -1.64177
21 1 22.296 -0.905417 -1.68098
22 1 22.6793 -1.25645 -2.34655
23 1 23.3677 -0.965991 -1.71327
24 1 23.9754 -0.175916 -1.321
25 1 23.4569 -0.439688 -0.579223
26 1 23.9398 -0.845518 0.134325
27 1 23.0298 -1.3165 0.445729
28 1 23.5566 -0.914538 1.12577
29 1 23.2919 -1.1924 1.96489
30 1 22.7669 -1.99505 2.41598
31 1 22.2533 -1.22825 1.78258
32 1 21.3377 -0.81469 1.4807
33 1 21.4844 -0.482703 2.49781
34 1 21.2762 -1.54188 2.25676
35 1 21.6142 -1.50972 3.23407
36 1 22.4 -0.935307 3.0867
37 1 23.0061 -0.401167 2.54479
38 1 23.7973 0.175457 2.66379
39 1 22.845 0.641607 2.42508
40 1 22.1804 0.0752188 2.01845
41 1 22.6864 0.321121 1.23327
42 1 22.5123 -0.570599 1.07895
43 1 23.2982 -0.00661076 0.372896
44 1 23.4866 1.0438 0.239853
45 1 22.681 1.43227 -0.118039
46 1 22.2852 1.05331 0.548034
47 1 22.1916 1.99389 0.724504
48 1 22.3437 2.51636 0.00521405
49 1 21.471 2.2413 -0.440614
50 1 21.1149 1.50159 -1.02806
ITEM: TIMESTEP
12000
ITEM: NUMBER OF ATOMS
50
ITEM: BOX BOUNDS pp pp pp
-5.0000000000000000e+01 5.0000000000000000e+01
-5.0000000000000000e+01 5.0000000000000000e+01
-5.0000000000000000e+01 5.0000000000000000e+01
ITEM: ATOMS id type x y z
1 1 22.2961 -0.615647 0.452562
2 1 21.6075 -1.32994 0.391793
3 1 21.8397 -1.07383 -0.547571
4 1 21.5351 -0.645983 -1.43832
5 1 20.4574 -0.462267 -1.33756
6 1 20.9707 0.379541 -1.62792
7 1 21.6035 1.08283 -1.228
8 1 22.2769 0.334625 -1.40177
9 1 23.2336 0.0987612 -1.19308
10 1 24.1085 -0.188355 -1.56508
11 1 24.2862 -0.339255 -0.686008
12 1 24.9885 0.251826 -1.27204
13 1 25.1466 0.109785 -0.249799
14 1 24.6928 0.758298 -0.459876
15 1 24.0218 0.757781 -1.05473
16 1 23.3312 1.18296 -0.386194
17 1 22.9659 0.472624 -0.0271771
18 1 23.0362 0.0981151 0.988212
19 1 23.8137 0.660337 1.1744
20 1 24.059 0.266683 0.294926
21 1 24.6312 -0.580404 0.354563
22 1 23.8401 -0.630116 0.989463
23 1 23.4567 -1.18835 0.15125
24 1 23.1235 -0.919873 -0.686521
25 1 22.618 -1.48973 -1.5272
26 1 23.2206 -1.9982 -0.601593
27 1 22.6243 -1.91157 0.203668
28 1 22.8245 -1.41305 1.18357
29 1 22.1919 -0.815327 1.62405
30 1 21.4809 -1.28359 1.79667
31 1 20.4768 -1.44006 1.95307
32 1 19.6567 -0.946768 2.08843
33 1 19.6693 -1.03036 1.08706
34 1 20.45 -0.440353 1.28096
35 1 19.4925 -0.0300666 0.98505
36 1 19.3605 0.893047 1.16944
37 1 19.8858 0.743349 0.397782
38 1 20.2645 1.25879 0.86526
39 1 20.7523 0.540032 1.10556
40 1 20.9446 0.904699 0.213277
41 1 21.0773 -0.0860869 -0.0233075
42 1 21.481 -0.351688 0.90868
43 1 21.9326 0.538989 0.661513
44 1 22.0078 0.307917 -0.37051
45 1 22.1126 1.17158 -0.162126
46 1 21.6759 1.94996 -0.445063
47 1 20.651 2.24672 -0.38041
48 1 20.0099 1.52476 -0.630966
49 1 19.6687 1.19107 -1.53942
50 1 20.6476 1.4858 -1.47896
ITEM: TIMESTEP
13000
ITEM: NUMBER OF ATOMS
50
ITEM: BOX BOUNDS pp pp pp
-5.0000000000000000e+01 5.0000000000000000e+01
-5.0000000000000000e+01 5.0000000000000000e+01
-5.0000000000000000e+01 5.0000000000000000e+01
ITEM: ATOMS id type x y z
1 1 22.9537 0.461767 2.06551
2 1 22.6148 0.759035 1.25934
3 1 21.7849 0.999435 0.729315
4 1 22.3156 1.34071 0.0361532
5 1 22.8595 1.44923 -0.971262
6 1 23.4153 0.63523 -0.779575
7 1 23.3532 -0.230147 0.0560709
8 1 24.1836 0.156751 0.292544
9 1 23.6373 0.435658 1.05827
10 1 23.2156 1.16742 0.606866
11 1 23.3593 1.91685 1.35012
12 1 23.4062 1.42831 2.39072
13 1 22.4818 1.34671 2.30664
14 1 22.5379 0.951636 3.15138
15 1 22.1447 0.226786 2.67398
16 1 21.9257 0.48894 1.88561
17 1 22.4003 -0.455566 1.88632
18 1 23.0366 -0.47942 1.15766
19 1 22.3613 -0.946934 0.615634
20 1 21.576 -1.0564 1.24945
21 1 20.9649 -0.715727 1.98705
22 1 20.8581 -0.0978928 1.09097
23 1 20.4353 -1.02127 0.94591
24 1 19.6268 -1.64685 0.775413
25 1 20.8731 -1.92126 0.617621
26 1 21.5314 -1.49737 -0.0607021
27 1 22.38 -2.01802 -0.53844
28 1 22.3045 -1.73803 -1.58545
29 1 21.2502 -1.70092 -1.53981
30 1 20.9689 -0.82683 -1.11021
31 1 20.4775 -1.13384 -0.186622
32 1 20.3906 -0.132383 -0.236184
33 1 21.239 0.111485 -0.26635
34 1 22.0941 -0.463363 -0.403783
35 1 22.1687 -0.783786 -1.23054
36 1 21.5213 -0.132207 -1.50096
37 1 20.6082 0.23537 -1.62474
38 1 20.4548 1.25187 -1.39953
39 1 20.0192 1.1982 -0.326733
40 1 21.1209 1.15164 -0.228869
41 1 20.7275 1.91935 -0.612083
42 1 21.1218 2.08722 -1.48099
43 1 21.6991 1.29711 -1.12586
44 1 22.2099 0.672642 -1.39725
45 1 22.7789 0.139085 -1.92835
46 1 22.0601 -0.344012 -2.38993
47 1 22.8411 -0.963343 -2.01336
48 1 23.225 -0.934074 -1.2652
49 1 23.9968 -1.39335 -1.93046
50 1 24.9889 -1.19544 -2.05532
ITEM: TIMESTEP
14000
ITEM: NUMBER OF ATOMS
50
ITEM: BOX BOUNDS pp pp pp
-5.0000000000000000e+01 5.0000000000000000e+01
-5.0000000000000000e+01 5.0000000000000000e+01
-5.0000000000000000e+01 5.0000000000000000e+01
ITEM: ATOMS id type x y z
1 1 20.7201 -0.167025 0.940849
2 1 20.9195 -0.00750482 1.86883
3 1 21.8158 0.0393681 1.48521
4 1 22.6152 0.116418 1.05941
5 1 23.129 0.491608 1.77884
6 1 23.4124 1.00344 0.982383
7 1 22.43 1.26716 1.39201
8 1 21.8151 1.03327 2.0138
9 1 21.3759 1.5636 1.24055
10 1 20.7543 2.14936 1.59878
11 1 20.6363 1.72022 2.49074
12 1 20.8614 0.714571 2.8022
13 1 20.3028 0.821607 1.83861
14 1 19.8473 1.54292 1.36738
15 1 19.2602 0.958967 0.945907
16 1 19.2544 0.681085 -0.0395129
17 1 20.3766 1.10485 -0.187491
18 1 20.426 0.264419 -0.588064
19 1 20.5691 -0.378515 -1.5017
20 1 21.2919 -0.0939814 -2.21893
21 1 22.0658 -0.638073 -2.42989
22 1 21.7658 -1.04423 -1.69647
23 1 22.3247 -1.06186 -0.820981
24 1 22.2895 -1.89599 -0.146262
25 1 21.7314 -2.14803 -0.955843
26 1 20.5972 -1.91644 -0.872525
27 1 20.303 -0.957044 -0.49617
28 1 20.0918 -1.63158 0.146535
29 1 20.7828 -1.28143 0.570504
30 1 21.1493 -1.85987 -0.00610345
31 1 21.3345 -1.03708 -0.288208
32 1 21.6863 -0.160373 -0.150232
33 1 21.6719 -0.605666 0.722076
34 1 22.483 -0.618052 0.237019
35 1 23.3947 -0.529463 0.184854
36 1 24.0166 -0.49533 -0.485002
37 1 23.7277 -1.50431 -0.660546
38 1 23.8618 -1.0123 -1.5106
39 1 23.1826 -0.331843 -1.03489
40 1 22.4046 -0.300905 -1.36293
41 1 22.5332 0.572742 -1.18736
42 1 22.3282 0.71925 -0.188714
43 1 22.9772 1.40285 0.106344
44 1 23.4543 0.552931 -0.286842
45 1 23.7175 1.48984 -0.921942
46 1 24.7068 1.00961 -1.5449
47 1 24.1345 0.160009 -1.39063
48 1 25.0103 -0.166945 -1.67838
49 1 25.5986 0.0621177 -1.00495
50 1 25.3612 0.401654 -0.116757
ITEM: TIMESTEP
15000
ITEM: NUMBER OF ATOMS
50
ITEM: BOX BOUNDS pp pp pp
-5.0000000000000000e+01 5.0000000000000000e+01
-5.0000000000000000e+01 5.0000000000000000e+01
-5.0000000000000000e+01 5.0000000000000000e+01
ITEM: ATOMS id type x y z
1 1 18.899 -1.01184 1.4041
2 1 19.1798 -0.516905 0.623375
3 1 19.255 0.498557 0.654875
4 1 19.1884 0.0826255 -0.353617
5 1 18.7422 -0.303428 -1.31787
6 1 18.9599 0.321915 -2.09651
7 1 19.6799 -0.444936 -2.13695
8 1 20.5323 -0.0180254 -1.84922
9 1 20.9949 0.925863 -2.01255
10 1 21.2422 0.632519 -1.0727
11 1 21.2953 0.978207 -0.184961
12 1 22.132 1.39643 -0.286459
13 1 22.1359 2.1794 -0.820427
14 1 21.2973 1.85521 -0.867838
15 1 20.3445 1.72894 -0.814692
16 1 19.8979 0.943275 -0.258889
17 1 20.5017 0.355833 0.197568
18 1 21.3039 0.695079 0.958365
19 1 22.1276 1.16577 0.686977
20 1 22.3509 0.347946 -0.0744901
21 1 22.3036 -0.66949 -0.294007
22 1 23.1965 -1.13456 -0.402332
23 1 23.6059 -1.19537 -1.50959
24 1 22.8432 -0.573492 -1.97952
25 1 22.1089 -0.959908 -1.39418
26 1 22.1791 0.0290041 -0.97999
27 1 21.2335 -0.471476 -1.05283
28 1 21.4461 -0.180974 -0.0887014
29 1 21.2986 -1.04927 -0.118827
30 1 21.0151 -1.80844 0.49187
31 1 21.6048 -1.3749 1.23198
32 1 22.167 -0.817861 0.835452
33 1 22.8592 -1.43316 0.762866
34 1 22.744 -1.25853 1.70083
35 1 23.2376 -0.506189 1.09898
36 1 23.4895 -0.220931 0.30041
37 1 23.8536 -0.301636 -0.61003
38 1 23.4066 0.561494 -0.578868
39 1 23.5355 1.22057 0.0661724
40 1 24.2503 0.786767 0.659199
41 1 24.3655 1.58253 0.939827
42 1 24.0925 1.92732 1.79348
43 1 23.2169 1.35747 1.51301
44 1 23.3296 0.536214 0.830073
45 1 23.8186 0.262778 1.59739
46 1 23.8636 -0.526956 2.12311
47 1 24.3079 -1.14064 1.40465
48 1 24.5328 -0.45278 0.653588
49 1 24.5256 -1.52506 0.37193
50 1 24.0078 -2.47497 0.255989
ITEM: TIMESTEP
16000
ITEM: NUMBER OF ATOMS
50
ITEM: BOX BOUNDS pp pp pp
-5.0000000000000000e+01 5.0000000000000000e+01
-5.0000000000000000e+01 5.0000000000000000e+01
-5.0000000000000000e+01 5.0000000000000000e+01
ITEM: ATOMS id type x y z
1 1 21.7356 -0.468659 -2.58746
2 1 22.5942 -0.40085 -2.66302
3 1 22.133 -0.297474 -3.56411
4 1 21.4054 0.23953 -3.30123
5 1 20.7214 0.647498 -3.836
6 1 20.3305 -0.148086 -3.00409
7 1 20.7722 0.602281 -2.62308
8 1 21.356 1.02005 -1.76108
9 1 21.2042 0.441189 -1.07168
10 1 22.2257 0.26261 -1.20576
11 1 23.063 -0.179632 -0.488569
12 1 23.0435 0.785061 -0.107683
13 1 22.3882 1.07848 0.466949
14 1 21.4472 1.0417 0.449549
15 1 20.8006 1.86307 0.640588
16 1 20.5056 1.43163 -0.18398
17 1 20.3921 0.465346 -0.351031
18 1 21.031 -0.205452 0.199891
19 1 21.9436 0.186706 -0.194092
20 1 21.9905 -0.722047 -0.336738
21 1 22.6735 -1.24663 -0.664028
22 1 22.8777 -1.01689 0.182645
23 1 23.6954 -0.724151 0.606091
24 1 23.8951 0.0966875 0.113007
25 1 24.0475 1.13685 0.177061
26 1 24.4933 0.907941 -0.577814
27 1 23.7529 0.814904 -1.27725
28 1 23.6186 0.042966 -1.90451
29 1 22.6902 -0.731622 -1.65353
30 1 21.7008 -1.06028 -1.35533
31 1 20.9032 -0.898019 -1.92836
32 1 20.297 -0.698098 -1.18326
33 1 20.2376 -0.909332 -0.262606
34 1 21.2511 -1.48917 0.148232
35 1 21.8979 -1.17861 0.875522
36 1 22.3297 -0.79655 1.56992
37 1 22.4555 -0.0256752 1.7193
38 1 22.6088 0.000489591 0.734122
39 1 21.6565 -0.218986 0.932833
40 1 21.2514 -0.641693 1.52421
41 1 21.2225 0.308768 1.75824
42 1 22.0156 0.789198 1.4158
43 1 22.5577 1.53433 1.62107
44 1 22.3324 0.999116 2.45552
45 1 22.0669 0.827227 3.34776
46 1 22.4425 0.202558 3.85313
47 1 22.7706 0.205658 2.82188
48 1 22.9861 -0.697173 3.27696
49 1 22.7267 -1.53403 3.7966
50 1 21.9619 -1.64273 3.39942
ITEM: TIMESTEP
17000
ITEM: NUMBER OF ATOMS
50
ITEM: BOX BOUNDS pp pp pp
-5.0000000000000000e+01 5.0000000000000000e+01
-5.0000000000000000e+01 5.0000000000000000e+01
-5.0000000000000000e+01 5.0000000000000000e+01
ITEM: ATOMS id type x y z
1 1 23.782 1.53063 -1.42266
2 1 23.5731 0.429019 -1.51965
3 1 23.6571 0.254688 -0.589531
4 1 24.0392 1.13269 -0.3349
5 1 24.8694 0.643385 0.0390459
6 1 24.1289 0.0787087 0.405441
7 1 23.3571 -0.327498 0.883509
8 1 23.4242 0.535862 1.16896
9 1 23.0041 1.33227 1.27249
10 1 22.9033 1.60139 0.329948