ITEM: TIMESTEP
0
ITEM: NUMBER OF ATOMS
50
ITEM: BOX BOUNDS pp pp pp
-5.0000000000000000e+01 5.0000000000000000e+01
-5.0000000000000000e+01 5.0000000000000000e+01
-5.0000000000000000e+01 5.0000000000000000e+01
ITEM: ATOMS id type x y z
1 1 -2.3606 0 0
2 1 -1.36246 0 0
3 1 -0.366179 0 0
4 1 0.630091 0 0
5 1 1.62637 0 0
6 1 2.62266 0 0
7 1 3.61893 0 0
8 1 4.6152 0 0
9 1 5.61147 0 0
10 1 6.60774 0 0
11 1 7.60402 0 0
12 1 8.60029 0 0
13 1 9.59657 0 0
14 1 10.5928 0 0
15 1 11.5891 0 0
16 1 12.5854 0 0
17 1 13.5817 0 0
18 1 14.5779 0 0
19 1 15.5742 0 0
20 1 16.5705 0 0
21 1 17.5668 0 0
22 1 18.563 0 0
23 1 19.5593 0 0
24 1 20.5556 0 0
25 1 21.5519 0 0
26 1 22.5481 0 0
27 1 23.5444 0 0
28 1 24.5407 0 0
29 1 25.537 0 0
30 1 26.5332 0 0
31 1 27.5295 0 0
32 1 28.5258 0 0
33 1 29.5221 0 0
34 1 30.5183 0 0
35 1 31.5146 0 0
36 1 32.5109 0 0
37 1 33.5072 0 0
38 1 34.5034 0 0
39 1 35.4997 0 0
40 1 36.496 0 0
41 1 37.4923 0 0
42 1 38.4885 0 0
43 1 39.4848 0 0
44 1 40.4811 0 0
45 1 41.4773 0 0
46 1 42.4736 0 0
47 1 43.4699 0 0
48 1 44.4662 0 0
49 1 45.4625 0 0
50 1 46.4606 0 0
ITEM: TIMESTEP
1000
ITEM: NUMBER OF ATOMS
50
ITEM: BOX BOUNDS pp pp pp
-5.0000000000000000e+01 5.0000000000000000e+01
-5.0000000000000000e+01 5.0000000000000000e+01
-5.0000000000000000e+01 5.0000000000000000e+01
ITEM: ATOMS id type x y z
1 1 9.14648 1.06812 0.389241
2 1 9.07311 0.208489 0.337025
3 1 9.20535 0.725422 -0.525018
4 1 10.0347 1.16194 -0.240948
5 1 10.3155 1.88558 0.347231
6 1 10.0736 1.21178 0.81045
7 1 10.0842 0.199581 0.790316
8 1 10.157 0.102092 -0.046869
9 1 10.6413 -0.622695 -0.0230001
10 1 11.2466 0.297351 0.489176
11 1 11.1511 1.01336 -0.266284
12 1 11.3668 0.0781142 -0.691028
13 1 12.2962 -0.433393 -0.826591
14 1 13.13 -0.350375 -1.29281
15 1 13.3501 -0.203843 -0.296294
16 1 14.2557 -0.681464 -0.651549
17 1 15.2021 -0.388786 -0.655778
18 1 15.9629 -0.0818147 -0.209766
19 1 16.8186 -0.221055 -0.530795
20 1 17.6981 -0.599172 -0.279521
21 1 18.582 -0.644368 -0.672694
22 1 18.9028 -0.557685 0.342773
23 1 19.5831 -0.937399 -0.343786
24 1 19.9436 -0.912119 0.515863
25 1 20.576 -1.71021 0.28216
26 1 21.5081 -1.11346 0.277739
27 1 22.3484 -1.43719 -0.303808
28 1 23.3258 -1.15959 -0.442451
29 1 23.9307 -1.6774 -1.12314
30 1 24.7823 -1.03737 -1.18652
31 1 25.811 -1.02987 -1.36123
32 1 26.8095 -0.98308 -1.37595
33 1 27.6529 -0.672102 -1.33493
34 1 28.5789 -0.30047 -1.12853
35 1 29.5463 -0.104893 -0.848604
36 1 30.27 0.642213 -0.457957
37 1 30.7259 0.364642 0.432118
38 1 31.3801 0.240376 -0.298929
39 1 31.3717 1.25699 -0.386193
40 1 32.3887 0.743739 -0.197984
41 1 33.3093 0.390255 -0.205956
42 1 33.6241 0.709406 0.600746
43 1 34.4846 0.554121 0.15937
44 1 34.9953 1.21793 0.712895
45 1 35.8481 1.20032 1.37358
46 1 36.1305 0.454805 0.71676
47 1 36.7238 0.580532 1.38935
48 1 36.1148 0.380625 2.15624
49 1 36.4735 0.45155 3.06085
50 1 35.5688 0.720461 3.02104
ITEM: TIMESTEP
2000
ITEM: NUMBER OF ATOMS
50
ITEM: BOX BOUNDS pp pp pp
-5.0000000000000000e+01 5.0000000000000000e+01
-5.0000000000000000e+01 5.0000000000000000e+01
-5.0000000000000000e+01 5.0000000000000000e+01
ITEM: ATOMS id type x y z
1 1 20.7691 2.13504 -0.0713109
2 1 20.9609 2.3107 -1.14889
3 1 20.6059 1.30941 -0.849498
4 1 19.9696 1.56915 -0.244064
5 1 19.9355 2.01381 0.797556
6 1 20.5207 1.24348 0.683145
7 1 20.7191 0.54581 1.20463
8 1 21.5431 0.455403 0.892512
9 1 21.6147 -0.434039 0.736203
10 1 20.6453 -0.541575 0.424796
11 1 20.8445 0.317341 0.0484085
12 1 19.7321 0.468591 0.223997
13 1 19.8455 -0.349131 -0.440108
14 1 19.2981 -0.256321 -1.46443
15 1 19.5014 0.575938 -0.881054
16 1 20.509 0.174879 -1.26186
17 1 20.4115 -0.756331 -1.29148
18 1 20.2895 -1.51754 -0.632988
19 1 20.4318 -1.55958 0.287355
20 1 21.5042 -1.29863 0.121724
21 1 21.2424 -0.48603 -0.491009
22 1 21.7915 -0.897473 -1.08346
23 1 21.8584 -1.73104 -0.779338
24 1 21.0161 -2.17925 -1.16775
25 1 20.4594 -1.69659 -1.8414
26 1 21.1588 -0.959305 -1.95578
27 1 22.018 -0.838908 -2.0256
28 1 22.1003 -0.147852 -1.64685
29 1 22.614 0.0559572 -1.10837
30 1 22.9707 -0.88784 -1.2297
31 1 24.0732 -1.07009 -1.23252
32 1 23.7842 -0.133106 -1.12759
33 1 23.3302 -0.319377 -0.174446
34 1 23.2374 -0.634492 0.44736
35 1 22.5226 -1.14102 -0.00863127
36 1 23.2025 -2.17254 -0.122227
37 1 23.91 -1.34187 -0.193427
38 1 24.253 -0.848254 0.564614
39 1 24.3249 -0.203709 -0.198901
40 1 24.86 0.530363 -0.201963
41 1 24.8068 0.213792 0.722744
42 1 23.8507 0.272439 0.792794
43 1 23.3697 0.484777 1.81614
44 1 23.5251 1.51814 1.51015
45 1 24.1991 1.60784 0.827258
46 1 24.5082 1.36103 1.80309
47 1 24.2664 1.68432 2.7104
48 1 23.6917 0.982121 3.0179
49 1 22.8147 0.813806 2.69592
50 1 23.0889 1.75775 2.54596
ITEM: TIMESTEP
3000
ITEM: NUMBER OF ATOMS
50
ITEM: BOX BOUNDS pp pp pp
-5.0000000000000000e+01 5.0000000000000000e+01
-5.0000000000000000e+01 5.0000000000000000e+01
-5.0000000000000000e+01 5.0000000000000000e+01
ITEM: ATOMS id type x y z
1 1 23.1197 0.83728 2.25041
2 1 22.9015 1.82986 2.37626
3 1 22.1201 2.18774 2.43925
4 1 22.1434 1.04559 2.29142
5 1 22.1025 0.923644 1.40841
6 1 22.1912 1.25448 0.630592
7 1 22.0157 1.48851 -0.535154
8 1 21.4112 0.730674 -1.01673
9 1 21.852 0.331786 -1.78742
10 1 21.2614 -0.400953 -1.77633
11 1 21.9723 -0.734104 -1.29111
12 1 22.1166 0.124439 -0.732983
13 1 22.8876 0.715777 -1.3477
14 1 23.5488 -0.137246 -1.26778
15 1 22.6827 -0.34241 -1.89272
16 1 22.3382 -1.32394 -2.07874
17 1 22.1411 -0.981511 -3.20566
18 1 22.3895 -2.12906 -2.76025
19 1 21.742 -2.49473 -2.04905
20 1 22.2149 -1.95652 -1.17037
21 1 23.2599 -1.7565 -1.72716
22 1 23.3445 -1.63784 -0.691113
23 1 22.851 -0.895328 -0.904263
24 1 22.8922 -1.17009 0.373991
25 1 23.406 -0.414133 0.576659
26 1 23.9605 -0.123351 -0.285962
27 1 23.2227 0.463979 -0.372643
28 1 23.4717 0.79358 0.257791
29 1 22.717 0.435215 0.8543
30 1 22.3115 -0.254618 0.380843
31 1 21.3253 -0.370493 0.197198
32 1 20.5872 -0.356105 -0.748433
33 1 20.056 -0.41125 0.363542
34 1 20.6706 -1.22617 0.68336
35 1 21.1347 -2.16572 0.288816
36 1 21.2004 -1.60456 -0.46734
37 1 22.1176 -1.16351 -0.269845
38 1 21.8109 -1.37197 0.60631
39 1 21.6186 -0.691626 1.18809
40 1 21.8313 -0.177794 2.01773
41 1 21.2483 0.603688 1.81169
42 1 20.4948 0.179362 1.3945
43 1 20.3867 1.02951 1.0205
44 1 20.451 0.675739 0.208348
45 1 21.1024 1.10985 0.185221
46 1 20.6417 1.90151 0.37424
47 1 21.2681 1.81343 1.11482
48 1 21.943 2.55337 0.924727
49 1 22.9537 1.93667 0.858694
50 1 23.0685 1.32585 1.30105
ITEM: TIMESTEP
4000
ITEM: NUMBER OF ATOMS
50
ITEM: BOX BOUNDS pp pp pp
-5.0000000000000000e+01 5.0000000000000000e+01
-5.0000000000000000e+01 5.0000000000000000e+01
-5.0000000000000000e+01 5.0000000000000000e+01
ITEM: ATOMS id type x y z
1 1 19.3429 0.534119 -0.1234
2 1 19.6662 -0.04417 -0.503873
3 1 20.3804 0.244676 -0.0893053
4 1 21.1224 1.09598 -0.29667
5 1 22.3245 1.11806 -0.329106
6 1 22.507 0.858131 0.601354
7 1 23.6437 0.400925 0.343615
8 1 24.5823 0.799236 0.381887
9 1 25.2452 0.691841 0.983635
10 1 25.0013 -0.0774694 1.42519
11 1 25.6911 -0.871349 0.870095
12 1 24.6872 -0.521192 0.511806
13 1 23.9981 -0.0582045 1.22147
14 1 23.5419 0.861845 1.35747
15 1 22.9496 0.477314 2.0158
16 1 22.2107 -0.237075 1.8231
17 1 22.8988 -0.225424 0.955607
18 1 23.407 -0.673439 0.433823
19 1 23.8876 -0.833616 -0.69693
20 1 23.4231 -1.71574 -0.391927
21 1 22.8558 -1.56348 0.424266
22 1 22.3031 -1.74304 -0.128569
23 1 21.5945 -1.96227 0.456848
24 1 21.8971 -0.998256 0.762795
25 1 20.9834 -0.643506 0.235131
26 1 20.9242 -0.575621 1.16049
27 1 21.6735 0.221623 0.838777
28 1 21.5882 0.07178 -0.227112
29 1 22.1183 -0.638544 -0.264373
30 1 22.3347 0.320183 -1.04435
31 1 22.0845 1.09591 -1.53227
32 1 21.4653 0.438195 -1.79541
33 1 21.7681 -0.372689 -1.75657
34 1 22.7551 -0.0138184 -2.01371
35 1 22.831 -0.672865 -1.41744
36 1 22.0748 -1.25107 -1.20157
37 1 21.4633 -1.50589 -1.58044
38 1 21.2464 -1.55068 -0.546764
39 1 20.8418 -0.534046 -0.801706
40 1 20.5713 -0.324689 -1.56187
41 1 20.2889 0.647431 -1.92246
42 1 20.8514 0.595165 -1.10229
43 1 20.9545 1.42493 -1.40083
44 1 19.9118 1.0189 -1.01566
45 1 19.5062 1.60866 -0.499333
46 1 20.2151 1.52047 0.322765
47 1 20.4841 0.887944 1.05707
48 1 20.8202 1.3083 1.75925
49 1 21.7828 0.938805 1.71456
50 1 21.7996 0.427703 2.58713
ITEM: TIMESTEP
5000
ITEM: NUMBER OF ATOMS
50
ITEM: BOX BOUNDS pp pp pp
-5.0000000000000000e+01 5.0000000000000000e+01
-5.0000000000000000e+01 5.0000000000000000e+01
-5.0000000000000000e+01 5.0000000000000000e+01
ITEM: ATOMS id type x y z
1 1 23.5643 1.73716 -1.13213
2 1 22.6002 1.09855 -1.20912
3 1 22.2767 1.5932 -0.628175
4 1 22.1334 0.836634 -0.388913
5 1 21.4332 0.998304 0.133353
6 1 21.7802 1.93251 0.234533
7 1 22.0306 1.64129 1.12278
8 1 22.2667 1.03611 1.84518
9 1 21.8128 1.35891 2.56979
10 1 22.6737 1.08814 2.96528
11 1 22.1303 0.0546117 2.87841
12 1 21.4975 0.372112 2.04031
13 1 20.6734 -0.223137 1.61072
14 1 20.1308 0.182948 0.855185
15 1 19.5264 -0.548091 0.725278
16 1 19.8545 -0.416676 -0.213687
17 1 20.569 -0.962167 0.277725
18 1 20.0261 -1.63482 0.694714
19 1 21.0553 -2.04285 0.825482
20 1 21.9735 -1.88067 0.982629
21 1 21.9526 -1.35296 0.388434
22 1 22.8451 -1.00835 0.564641
23 1 22.8876 -1.05236 -0.353747
24 1 22.7403 -0.105386 -0.0753459
25 1 21.7346 -0.342804 0.0263881
26 1 20.8665 0.094173 0.0562714
27 1 21.2613 0.379313 0.91683
28 1 21.4613 -0.555369 1.034
29 1 22.2063 -0.101146 1.162
30 1 23.0798 0.220557 1.78691
31 1 23.6533 -0.489527 1.3501
32 1 24.2603 -0.885218 0.705932
33 1 23.8312 -0.82344 -0.0293747
34 1 24.0301 -1.76345 -0.22137
35 1 24.5437 -1.40134 -1.00453
36 1 24.0899 -1.30009 -1.87956
37 1 24.4167 -0.328992 -1.94892
38 1 23.9139 0.192795 -1.51089
39 1 23.4338 -0.478727 -0.96893
40 1 22.7421 -0.877673 -1.39479
41 1 22.497 0.0362621 -1.44959
42 1 21.756 0.0993171 -0.910219
43 1 21.5544 1.10551 -1.28755
44 1 21.5489 1.95584 -1.59871
45 1 20.8911 2.32059 -1.07086
46 1 20.622 1.46486 -0.860228
47 1 20.54 0.533601 -1.29251
48 1 20.7181 -0.525813 -1.24233
49 1 21.2484 -0.266015 -2.13277
50 1 21.1649 -0.96624 -2.94862
ITEM: TIMESTEP
6000
ITEM: NUMBER OF ATOMS
50
ITEM: BOX BOUNDS pp pp pp
-5.0000000000000000e+01 5.0000000000000000e+01
-5.0000000000000000e+01 5.0000000000000000e+01
-5.0000000000000000e+01 5.0000000000000000e+01
ITEM: ATOMS id type x y z
1 1 21.9083 1.60984 -0.232277
2 1 20.8949 1.4235 0.25324
3 1 21.4325 1.29049 1.04412
4 1 21.6052 0.275443 1.16314
5 1 21.2295 -0.385195 0.606469
6 1 20.1967 -0.536139 0.843376
7 1 19.7671 0.393399 0.386011
8 1 20.5688 0.461163 -0.0128611
9 1 20.2523 -0.143095 -0.726259
10 1 20.2025 0.646069 -1.20905
11 1 21.1754 0.77074 -1.65901
12 1 21.2675 0.661524 -0.888335
13 1 21.6681 0.656859 0.147114
14 1 22.4299 0.58147 -0.911761
15 1 22.5418 0.115536 -0.0639444
16 1 22.0404 -0.669023 -0.54051
17 1 20.9927 -0.870491 -0.289112
18 1 21.4065 -0.505524 -1.23502
19 1 22.3278 -0.220625 -1.66248
20 1 22.2477 -1.24648 -1.54066
21 1 22.9887 -1.94406 -1.98012
22 1 23.1363 -1.63367 -1.19086
23 1 23.0285 -0.813315 -0.605665
24 1 22.7364 -1.43254 -0.0845413
25 1 22.8452 -1.29496 0.794695
26 1 21.808 -1.23572 0.561045
27 1 22.0778 -0.515601 1.02074
28 1 21.7387 -0.715928 1.71051
29 1 21.8179 -1.10515 2.61194
30 1 21.3993 -0.0920711 2.52709
31 1 20.468 -0.711564 2.70401
32 1 20.5299 -1.26535 1.90482
33 1 20.8705 -0.225459 1.55503
34 1 20.886 0.725506 2.16602
35 1 21.9024 1.12719 1.93233
36 1 21.78 2.01488 2.01643
37 1 22.0623 2.32517 1.11041
38 1 22.7739 1.55977 1.71531
39 1 22.5809 1.11051 0.853355
40 1 23.4446 0.814164 0.138778
41 1 24.1039 0.0407079 0.498747
42 1 23.8754 -0.633593 -0.0840186
43 1 24.2085 -1.26257 -0.763379
44 1 24.5786 -0.325962 -0.966462
45 1 23.69 0.149451 -1.04706
46 1 23.4199 -0.67626 -1.44027
47 1 23.2191 -0.861544 -2.41622
48 1 23.1737 0.155355 -2.3713
49 1 22.7644 0.813035 -2.97275
50 1 22.4357 1.60013 -3.37084
ITEM: TIMESTEP
7000
ITEM: NUMBER OF ATOMS
50
ITEM: BOX BOUNDS pp pp pp
-5.0000000000000000e+01 5.0000000000000000e+01
-5.0000000000000000e+01 5.0000000000000000e+01
-5.0000000000000000e+01 5.0000000000000000e+01
ITEM: ATOMS id type x y z
1 1 22.3993 2.08853 -0.0937467
2 1 22.9163 1.73061 -0.036837
3 1 22.3476 1.29734 -0.693047
4 1 22.368 0.656136 -1.37467
5 1 22.9162 0.356968 -2.17683
6 1 22.0437 0.440543 -2.637
7 1 21.899 -0.224061 -1.92222
8 1 22.5047 -1.01302 -2.11516
9 1 23.1506 -0.875166 -1.56297
10 1 23.1548 0.0199287 -1.1525
11 1 23.185 0.683153 -0.445975
12 1 22.5275 0.7237 0.114338
13 1 23.5193 0.723717 0.568929
14 1 24.2197 0.330005 0.0859199
15 1 23.7341 -0.639405 0.509647
16 1 22.9329 -0.221378 0.383458
17 1 22.4935 -0.372387 -0.344025
18 1 21.7889 -0.680143 -1.02106
19 1 22.3281 -1.4465 -0.904141
20 1 23.1349 -1.86289 -1.37367
21 1 23.1878 -2.49153 -0.726344
22 1 23.133 -2.52294 0.0958976
23 1 23.3886 -1.61242 -0.0971613
24 1 22.433 -1.6827 0.299473
25 1 22.2183 -0.8295 0.830434
26 1 21.2576 -0.888689 1.50617
27 1 20.7509 -0.805433 0.824217
28 1 21.277 -1.43222 -0.0664973
29 1 21.4725 -0.273557 0.0353485
30 1 20.7833 -0.377042 -0.44889
31 1 20.7242 -0.874529 -1.0956
32 1 20.4377 -1.87859 -0.708207
33 1 19.6657 -1.11338 -0.591056
34 1 19.422 -0.170718 -0.891721
35 1 20.0145 0.381991 -1.1432
36 1 21.0212 0.388563 -1.2293
37 1 20.9188 1.00844 -0.589863
38 1 21.7303 1.27757 0.153597
39 1 21.0847 1.96135 0.401884
40 1 20.9008 1.68153 1.3106
41 1 21.9254 1.73614 1.62069
42 1 22.2796 1.47919 0.950937
43 1 22.5959 0.690288 1.46436
44 1 23.103 1.33441 2.26904
45 1 23.2012 0.670904 3.19516
46 1 22.1317 0.885719 2.90663
47 1 22.1463 0.0265713 2.25607
48 1 21.4464 0.613742 2.05434
49 1 21.5035 0.404884 0.982296
50 1 20.7809 0.69628 0.622245
ITEM: TIMESTEP
8000
ITEM: NUMBER OF ATOMS
50
ITEM: BOX BOUNDS pp pp pp
-5.0000000000000000e+01 5.0000000000000000e+01
-5.0000000000000000e+01 5.0000000000000000e+01
-5.0000000000000000e+01 5.0000000000000000e+01
ITEM: ATOMS id type x y z
1 1 21.9171 2.11535 -0.218999
2 1 22.5073 2.27542 0.329988
3 1 23.3455 1.9139 0.357493
4 1 23.8874 1.13564 0.557948
5 1 24.5345 1.58774 0.365747
6 1 25.0348 0.493077 0.446848
7 1 24.5425 0.452948 1.28014
8 1 23.6528 0.685752 1.88421
9 1 23.5791 -0.0257181 1.10291
10 1 23.0279 -0.759664 1.07005
11 1 23.4986 -1.06351 1.76197
12 1 23.0426 -2.00412 1.39299
13 1 22.5251 -1.57704 2.22663
14 1 21.9135 -1.22413 2.72969
15 1 22.4268 -0.466369 2.1636
16 1 21.4934 -0.350854 1.57598
17 1 21.8941 -0.0558763 0.717114
18 1 22.6619 -0.384932 0.289305
19 1 23.2387 -1.19118 -0.315679
20 1 22.3422 -1.48231 -0.827523
21 1 22.006 -1.38203 0.182142
22 1 21.6693 -1.19102 0.79599
23 1 20.7998 -0.892051 0.416162
24 1 21.118 -1.46899 -0.375577
25 1 20.9561 -2.46968 -0.652612
26 1 20.8268 -1.73408 -1.40401
27 1 20.9181 -1.31435 -2.22126
28 1 21.2796 -0.513655 -1.842
29 1 21.7712 -0.745718 -0.981661
30 1 22.094 0.01238 -0.60309
31 1 22.1686 0.14454 -1.75374
32 1 22.825 -0.576582 -1.69353
33 1 23.0625 -0.250832 -0.879655
34 1 23.9355 0.0945089 -0.39934
35 1 23.2444 0.398479 0.0677527
36 1 22.488 0.742897 0.370378
37 1 22.0852 1.05766 -0.43457
38 1 21.645 1.77582 -1.12668
39 1 22.3017 1.11318 -1.39262
40 1 21.3221 0.65267 -1.19151
41 1 20.3052 0.945104 -1.31685
42 1 19.3805 1.04958 -0.995056
43 1 18.8364 0.0913099 -1.07786
44 1 19.8717 -0.222493 -1.15467
45 1 19.8688 -0.586346 -0.144878
46 1 20.0733 0.320094 -0.255508
47 1 20.6724 1.24902 -0.218028
48 1 21.0686 0.438428 0.0903842
49 1 21.5536 1.11325 0.595335
50 1 21.2869 2.07477 0.706145
ITEM: TIMESTEP
9000
ITEM: NUMBER OF ATOMS
50
ITEM: BOX BOUNDS pp pp pp
-5.0000000000000000e+01 5.0000000000000000e+01
-5.0000000000000000e+01 5.0000000000000000e+01
-5.0000000000000000e+01 5.0000000000000000e+01
ITEM: ATOMS id type x y z
1 1 23.0027 1.67168 0.504881
2 1 22.339 1.97264 -0.149621
3 1 21.6346 2.67156 0.38632
4 1 21.0914 1.9537 0.276583
5 1 21.8841 1.42615 0.550134
6 1 22.0177 0.789253 1.31685
7 1 21.149 0.443794 1.47747
8 1 21.0148 -0.240988 0.998458
9 1 20.6186 -0.811463 1.38542
10 1 20.1389 -0.830594 0.523898
11 1 20.3993 -0.961892 -0.219498
12 1 20.7638 -0.864656 -0.987729
13 1 21.121 -0.258839 -1.84176
14 1 21.6587 0.0248908 -1.15047
15 1 21.237 -0.235234 -0.300645
16 1 21.8174 0.18357 0.422926
17 1 21.6791 -0.753911 0.424674
18 1 21.4979 -1.53138 0.569203
19 1 21.5494 -1.2328 1.58528
20 1 20.9482 -1.76184 1.92312
21 1 21.7016 -2.51856 1.95792
22 1 22.5789 -2.05591 1.7198
23 1 22.331 -2.48336 0.804429
24 1 23.3654 -2.63862 0.414215
25 1 22.8308 -2.27942 -0.336073
26 1 22.375 -1.35216 -0.556226
27 1 21.4762 -1.99426 -0.747822
28 1 21.5528 -1.29918 -1.51023
29 1 22.4781 -0.74184 -1.43268
30 1 22.3807 -0.398698 -0.299202
31 1 23.2136 -0.657583 0.113195
32 1 23.1509 0.109556 0.705842
33 1 23.7545 0.697508 0.560222
34 1 24.5699 -0.136025 0.365591
35 1 24.0929 0.277152 -0.330127
36 1 24.1514 1.43022 -0.225651
37 1 24.208 0.969282 -1.1713
38 1 24.2178 2.08512 -1.15116
39 1 23.5406 2.65335 -0.893096
40 1 23.2711 1.6709 -0.906434
41 1 23.7605 1.60678 -2.07788
42 1 22.7529 0.987349 -1.91821
43 1 23.156 0.471715 -1.11908
44 1 22.8164 0.790666 -0.257322
45 1 21.8093 0.953412 -0.407998
46 1 20.7804 0.860885 0.0370646
47 1 20.196 0.128208 -0.724451
48 1 19.3966 0.481859 -0.160834
49 1 19.8909 0.328127 0.703286
50 1 19.1372 0.399913 1.14872
ITEM: TIMESTEP
10000
ITEM: NUMBER OF ATOMS
50
ITEM: BOX BOUNDS pp pp pp
-5.0000000000000000e+01 5.0000000000000000e+01
-5.0000000000000000e+01 5.0000000000000000e+01
-5.0000000000000000e+01 5.0000000000000000e+01
ITEM: ATOMS id type x y z
1 1 21.5114 1.39977 -0.248934
2 1 20.4834 0.858485 -0.406146
3 1 19.9758 -0.023697 -0.68612
4 1 20.302 0.375631 -1.58534
5 1 21.0335 -0.0637063 -1.13169
6 1 21.1747 -0.484393 -1.93887
7 1 21.0078 -1.3152 -1.75386
8 1 21.3025 -1.76222 -1.51931
9 1 21.9311 -1.8524 -2.12142
10 1 22.3492 -2.36264 -1.43997
11 1 22.4162 -1.5766 -0.977871
12 1 22.7867 -1.2638 -1.64245
13 1 22.1315 -0.465478 -1.22015
14 1 22.1145 0.277518 -0.423242
15 1 21.4808 0.0503282 0.44001
16 1 21.0363 0.527232 1.31182
17 1 20.2746 -0.0436091 0.84158
18 1 20.6887 -0.465061 0.0451465
19 1 21.274 -0.989285 -0.566254
20 1 22.0713 -1.21994 -0.103526
21 1 21.2232 -1.53239 0.499958
22 1 21.5496 -2.10582 1.24813
23 1 21.4262 -1.22464 1.95144
24 1 22.1738 -1.09137 2.06091
25 1 22.7382 -1.72844 1.50601
26 1 22.5869 -1.20495 0.76456
27 1 21.7734 -0.693063 1.18024
28 1 22.45 -0.142172 1.06895
29 1 22.7448 0.420438 1.84269
30 1 21.7918 0.244081 2.0696
31 1 21.9719 0.996983 2.62583
32 1 21.7466 1.24483 1.76019
33 1 22.2973 1.97274 1.46115
34 1 23.0306 1.53124 2.31614
35 1 23.6748 1.20817 1.87352
36 1 23.5594 0.646786 1.29156
37 1 23.1293 1.52597 1.04483
38 1 22.2084 1.31746 0.677554
39 1 22.6507 0.697519 0.380361
40 1 23.6527 0.475436 0.195255
41 1 24.1849 -0.430205 0.116579
42 1 23.1596 -0.458803 -0.172332
43 1 23.3881 0.46895 -0.8017
44 1 22.8633 1.22955 -0.468284
45 1 23.2478 1.23362 -1.43022
46 1 22.3032 1.81164 -1.34797
47 1 22.3326 0.852553 -1.70188
48 1 21.4804 0.489572 -2.0158
49 1 21.3625 1.44237 -2.18852
50 1 22.452 1.20101 -2.68214
ITEM: TIMESTEP
11000
ITEM: NUMBER OF ATOMS
50
ITEM: BOX BOUNDS pp pp pp
-5.0000000000000000e+01 5.0000000000000000e+01
-5.0000000000000000e+01 5.0000000000000000e+01
-5.0000000000000000e+01 5.0000000000000000e+01
ITEM: ATOMS id type x y z
1 1 22.0892 0.170454 -1.57776
2 1 21.3255 0.00901091 -2.15832
3 1 22.3309 -0.221559 -2.48451
4 1 23.1957 -0.749532 -1.94132
5 1 23.8761 -0.159058 -2.52889
6 1 24.6192 -0.0650922 -1.82672
7 1 24.1124 -0.868254 -1.46887
8 1 23.8177 -0.043176 -1.05243
9 1 24.5398 -0.613094 -0.424592
10 1 23.5749 -0.38114 -0.0271664
11 1 23.5346 0.30681 0.532077
12 1 23.5019 1.00453 0.134029
13 1 22.845 1.37381 -0.299293
14 1 23.0706 0.638063 -0.869834
15 1 22.6425 -0.410471 -0.726293
16 1 22.0508 -1.02553 -1.46072
17 1 21.0941 -1.39869 -1.90696
18 1 20.1151 -1.32138 -2.1091
19 1 19.5962 -0.454079 -2.42815
20 1 19.6761 -0.575517 -1.43515
21 1 20.3805 -0.966215 -1.2143
22 1 20.011 -0.716423 -0.457793
23 1 20.2008 -1.22022 0.466954
24 1 20.1417 -0.64183 1.22535
25 1 20.3605 -0.095022 1.75443
26 1 20.7009 -0.0539526 2.70494
27 1 20.6851 -0.921881 2.48955
28 1 21.3273 -0.469991 1.90607
29 1 21.193 -0.147857 1.08274
30 1 21.445 0.616128 0.471016
31 1 22.3988 0.59777 0.356324
32 1 22.0196 0.449764 -0.452615
33 1 21.2213 1.04008 -0.674361
34 1 20.3806 0.417725 -1.00334
35 1 21.1619 -0.273363 -1.03739
36 1 20.9339 -0.169142 -0.00731255
37 1 21.4881 -0.634409 0.159314
38 1 22.1184 -0.340496 0.580583
39 1 21.9992 -1.03228 1.0256
40 1 22.5489 -0.686891 1.73072
41 1 22.3087 0.113678 2.26992
42 1 21.7379 0.704305 1.90645
43 1 22.4443 1.21852 2.46462
44 1 23.0338 1.34942 1.75719
45 1 22.9604 0.399426 1.29908
46 1 23.5025 0.540229 2.00902
47 1 24.0113 0.926796 1.11043
48 1 23.5707 1.72027 0.962538
49 1 22.6958 1.42617 0.788586
50 1 21.9099 1.63357 0.385645
ITEM: TIMESTEP
12000
ITEM: NUMBER OF ATOMS
50
ITEM: BOX BOUNDS pp pp pp
-5.0000000000000000e+01 5.0000000000000000e+01
-5.0000000000000000e+01 5.0000000000000000e+01
-5.0000000000000000e+01 5.0000000000000000e+01
ITEM: ATOMS id type x y z
1 1 23.0302 1.74639 -0.248244
2 1 23.5222 0.993567 -0.149791
3 1 24.1574 0.957438 0.645326
4 1 23.7788 0.0947813 0.836512
5 1 24.202 -0.729517 1.35213
6 1 23.8477 -0.597732 2.21745
7 1 24.0355 -1.4967 2.40766
8 1 23.4237 -1.78939 1.91554
9 1 22.734 -1.02764 1.79956
10 1 21.8876 -0.618288 2.09042
11 1 21.6124 -0.0306181 1.42994
12 1 22.7503 0.129466 1.50421
13 1 22.9676 -0.627666 0.67833
14 1 22.6277 -0.981487 -0.181853
15 1 23.7195 -1.07195 0.067982
16 1 23.4648 -1.03792 -0.794245
17 1 23.4661 0.00331062 -0.488286
18 1 24.1811 0.263309 -0.880634
19 1 23.8244 1.33976 -1.10438
20 1 23.2185 0.615357 -1.64827
21 1 22.4374 0.0244487 -2.17767
22 1 22.6824 -0.326492 -1.13193
23 1 21.9195 0.23707 -1.31289
24 1 21.5504 -0.53941 -1.50282
25 1 21.0519 -1.2586 -2.01269
26 1 20.4644 -0.597277 -2.13656
27 1 20.6148 0.360182 -2.2848
28 1 20.8711 0.884263 -1.3691
29 1 20.2458 -0.0978061 -1.28305
30 1 19.5734 0.628649 -0.943255
31 1 20.302 1.01427 -0.576283
32 1 21.2379 1.06693 -0.256808
33 1 22.0239 1.43648 -0.406619
34 1 22.5609 0.543968 -0.58183
35 1 21.8956 -0.214595 -0.464972
36 1 21.0204 0.0245992 -0.492366
37 1 20.7365 -0.895175 -0.668646
38 1 19.9284 -0.150972 -0.284216
39 1 19.6796 -1.01407 -0.202023
40 1 19.7843 -2.04994 0.283931
41 1 20.78 -1.59836 0.81802
42 1 21.3704 -0.858308 0.915442
43 1 20.4416 -0.487589 0.683503
44 1 20.9147 0.29891 0.457441
45 1 21.8562 0.491543 0.266859
46 1 22.7892 0.655689 0.612032
47 1 22.2172 1.40018 0.793205
48 1 21.3713 1.9374 0.444766
49 1 21.6225 1.96217 1.46377
50 1 22.105 0.987374 1.90021
ITEM: TIMESTEP
13000
ITEM: NUMBER OF ATOMS
50
ITEM: BOX BOUNDS pp pp pp
-5.0000000000000000e+01 5.0000000000000000e+01
-5.0000000000000000e+01 5.0000000000000000e+01
-5.0000000000000000e+01 5.0000000000000000e+01
ITEM: ATOMS id type x y z
1 1 20.235 -0.409292 2.83754
2 1 20.9176 -0.130695 2.14248
3 1 21.8202 -0.327488 2.42341
4 1 21.5294 0.615567 2.5382
5 1 22.6639 0.629488 2.44208
6 1 22.275 0.700167 1.35337
7 1 21.3368 0.653926 1.54304
8 1 21.3993 1.35295 0.868292
9 1 21.3861 0.247304 0.553178
10 1 20.6757 -0.1669 0.962459
11 1 20.3228 -0.104367 0.141737
12 1 19.6832 -0.663084 0.858134
13 1 20.2386 -1.23109 1.4974
14 1 20.974 -1.45332 0.882642
15 1 21.669 -0.728506 1.36347
16 1 22.0097 -1.49761 1.09816
17 1 21.9649 -0.623289 0.428461
18 1 22.6524 -0.241625 0.815056
19 1 23.0591 -0.830012 0.108212
20 1 23.7053 -0.310225 0.622304
21 1 23.4827 0.431668 0.367675
22 1 23.7311 -0.132819 -0.465997
23 1 23.5916 -1.08731 -0.727964
24 1 22.9109 -0.631988 -1.03032
25 1 22.9699 -0.904752 -1.91003
26 1 23.9733 -0.984185 -2.35384
27 1 23.8734 -0.314248 -1.54024
28 1 23.9125 0.810938 -1.57954
29 1 23.3115 0.519886 -1.34786
30 1 23.1023 1.48086 -1.60893
31 1 23.1175 1.22089 -0.565468
32 1 23.0532 2.21964 -0.420409
33 1 22.8322 2.31415 0.477758
34 1 23.6085 1.51598 0.229269
35 1 22.7399 1.25898 0.531339
36 1 22.5405 0.417179 -0.159472
37 1 22.0624 0.435432 -1.14542
38 1 21.9117 0.106617 -2.00637
39 1 21.9877 -0.884735 -2.54851
40 1 21.8465 -1.37639 -1.52027
41 1 21.5896 -1.9681 -0.868344
42 1 22.1109 -1.45756 -0.455907
43 1 21.8783 -0.538729 -0.619683
44 1 21.0045 -0.753561 -0.231814
45 1 21.2657 0.211863 -0.51978
46 1 21.6963 1.0646 -0.251191
47 1 20.6598 1.01752 0.103898
48 1 19.9547 0.430087 -0.747235
49 1 20.8265 0.547151 -1.35911
50 1 20.4364 -0.450966 -1.20587
ITEM: TIMESTEP
14000
ITEM: NUMBER OF ATOMS
50
ITEM: BOX BOUNDS pp pp pp
-5.0000000000000000e+01 5.0000000000000000e+01
-5.0000000000000000e+01 5.0000000000000000e+01
-5.0000000000000000e+01 5.0000000000000000e+01
ITEM: ATOMS id type x y z
1 1 19.8069 -0.356061 1.23344
2 1 19.0832 -0.122691 0.690127
3 1 19.9774 0.0290766 0.195837
4 1 19.7535 0.860529 0.5068
5 1 20.5533 0.527799 1.1334
6 1 21.2884 0.399138 0.326422
7 1 20.5211 0.670951 -0.421345
8 1 21.1381 0.785993 -0.962783
9 1 21.8375 0.226716 -0.768295
10 1 21.2154 -0.501718 -1.30628
11 1 20.4527 -1.08504 -1.71114
12 1 19.6806 -0.584311 -1.75014
13 1 19.7038 -0.0648145 -0.854554
14 1 20.396 -0.51392 -0.740304
15 1 21.0877 -0.565995 0.0185996
16 1 20.3642 -0.902247 0.538572
17 1 21.0925 -0.392582 1.08014
18 1 21.9593 -0.892888 0.709554
19 1 22.2888 -1.59483 1.26447
20 1 23.0962 -1.23008 1.12476
21 1 22.8198 -1.05474 2.02121
22 1 23.105 -0.0584007 1.57429
23 1 23.8471 0.441583 1.17624
24 1 24.22 0.597611 2.19379
25 1 23.975 1.47926 2.47931
26 1 23.0917 1.05539 2.06905
27 1 22.2072 1.02346 2.19548
28 1 22.3311 1.28076 1.39965
29 1 22.894 1.41746 0.736432
30 1 23.6904 1.9281 0.122102
31 1 23.4584 1.25158 -0.705132
32 1 24.2166 1.04145 -0.163017
33 1 23.3762 0.708011 0.233522
34 1 22.5913 1.21054 -0.328833
35 1 22.3461 0.198206 0.207984
36 1 22.9741 -0.339602 0.463862
37 1 23.7024 -0.576088 0.548812
38 1 24.0209 -0.379189 -0.372195
39 1 23.4095 -1.06825 -0.539011
40 1 23.4562 -2.00789 -0.986084
41 1 22.4243 -1.60121 -0.962703
42 1 22.2733 -0.723574 -0.341564
43 1 22.5831 -0.58182 -1.23378
44 1 23.4784 -0.385742 -1.47705
45 1 23.1376 0.178961 -0.767467
46 1 22.766 0.72552 -1.41951
47 1 22.2976 0.101163 -2.00289
48 1 21.6509 -0.568437 -2.40151
49 1 20.7384 -0.384621 -2.24825
50 1 20.1206 0.397481 -1.78001
ITEM: TIMESTEP
15000
ITEM: NUMBER OF ATOMS
50
ITEM: BOX BOUNDS pp pp pp
-5.0000000000000000e+01 5.0000000000000000e+01
-5.0000000000000000e+01 5.0000000000000000e+01
-5.0000000000000000e+01 5.0000000000000000e+01
ITEM: ATOMS id type x y z
1 1 22.1264 -0.53002 -1.76347
2 1 21.9416 -0.536912 -0.82076
3 1 21.7935 -0.976008 0.180026
4 1 21.023 -0.349704 -0.189742
5 1 21.274 0.316352 0.377919
6 1 20.7739 0.646219 -0.559679
7 1 21.7898 0.56719 -0.497922
8 1 22.3243 0.0760115 -0.123695
9 1 22.9294 0.658057 -0.43383
10 1 22.7431 0.211656 -1.22275
11 1 23.0442 -0.926421 -1.01568
12 1 22.2056 -1.53869 -0.654286
13 1 21.7036 -1.48717 -1.55737
14 1 21.4224 -2.44961 -0.893235
15 1 21.0722 -1.77516 -0.543771
16 1 20.5021 -1.19988 -1.01464
17 1 19.98 -0.513791 -1.44878
18 1 19.2629 -1.04229 -1.04857
19 1 18.9114 -0.345544 -1.58191
20 1 19.342 0.492876 -1.33011
21 1 19.7262 0.0665722 -0.577244
22 1 20.1245 0.354034 0.243927
23 1 20.3242 -0.390464 0.697492
24 1 21.0577 -0.54417 1.24718
25 1 21.1336 0.268139 1.80901
26 1 21.8795 1.00196 1.19439
27 1 21.1048 1.24905 1.38715
28 1 20.4135 1.64 1.16367
29 1 20.4052 1.29314 0.146816
30 1 21.2297 1.68393 0.252906
31 1 21.6 2.11679 0.873878
32 1 22.5424 2.38223 0.59702
33 1 23.1823 1.80344 0.0927252
34 1 22.3348 1.19879 0.316388
35 1 22.8676 0.517708 0.88619
36 1 22.0213 -0.134668 1.16141
37 1 22.771 -0.470912 0.575675
38 1 23.0647 -1.16665 0.0728829
39 1 22.9599 -1.44563 1.13725
40 1 23.6247 -1.91908 1.74065
41 1 24.1892 -1.06024 1.41617
42 1 24.2064 -0.0327226 1.27461
43 1 24.9505 -0.244527 1.27208
44 1 24.9325 0.284318 0.345058
45 1 24.4651 -0.222067 -0.298702
46 1 23.5597 -0.211398 -0.0119676
47 1 23.9148 0.702868 0.350546
48 1 24.1787 0.999694 -0.539572
49 1 23.573 0.886101 -1.21992
50 1 23.997 0.0966122 -1.46543
ITEM: TIMESTEP
16000
ITEM: NUMBER OF ATOMS
50
ITEM: BOX BOUNDS pp pp pp
-5.0000000000000000e+01 5.0000000000000000e+01
-5.0000000000000000e+01 5.0000000000000000e+01
-5.0000000000000000e+01 5.0000000000000000e+01
ITEM: ATOMS id type x y z
1 1 22.0756 -1.27686 0.408582
2 1 21.7523 -0.920682 -0.330687
3 1 22.4709 -0.861841 -0.995001
4 1 22.4144 -0.16718 -0.497237
5 1 22.3403 0.929506 -0.692558
6 1 23.2776 0.549751 -0.512061
7 1 24.0614 0.195912 -0.521021
8 1 23.8737 0.73618 0.401462
9 1 23.1055 0.430667 0.904413
10 1 23.1918 -0.418082 0.202902
11 1 23.3529 -1.07324 0.767071
12 1 22.7497 -1.99477 0.88138
13 1 22.2075 -2.55578 0.0245175
14 1 22.7925 -1.64134 -0.261019
15 1 23.6055 -1.08403 -0.685933
16 1 24.1786 -0.522576 -1.42609
17 1 23.2745 -0.385987 -1.72195
18 1 23.7668 0.362532 -1.64173
19 1 22.7933 0.699892 -1.60849
20 1 22.2209 1.364 -1.62696
21 1 21.8498 0.632345 -2.50375
22 1 21.3786 -0.213985 -2.61753
23 1 21.2681 0.348891 -3.37676
24 1 20.9343 1.20881 -2.60599
25 1 21.0183 0.699877 -1.67002
26 1 20.426 -0.00559918 -1.37059
27 1 20.7925 -0.43461 -0.812668
28 1 21.5942 0.0396802 -1.10294
29 1 21.4154 0.0234476 -0.0538133
30 1 21.066 1.0531 -0.566245
31 1 21.2334 1.10202 0.357768
32 1 20.4576 0.541175 0.643834
33 1 21.0767 1.03241 1.49025
34 1 21.7966 0.464449 1.12066
35 1 21.796 -0.573935 1.01607
36 1 20.712 -0.315572 1.37357
37 1 20.5581 -0.752656 0.450209
38 1 20.9994 -1.54739 0.268847
39 1 20.4825 -1.99828 0.930462
40 1 21.1712 -2.29877 1.18205
41 1 21.8467 -1.49612 1.51162
42 1 21.639 -0.851746 2.06893
43 1 21.2446 -0.316197 2.71022
44 1 21.7682 0.61111 2.58608
45 1 22.5634 1.03783 1.70698
46 1 22.0058 1.59896 1.16281
47 1 21.9755 1.78573 2.11882
48 1 22.2548 2.55943 1.69712
49 1 22.8663 2.1428 1.01534
50 1 22.8033 1.55672 0.199078
ITEM: TIMESTEP
17000
ITEM: NUMBER OF ATOMS
50
ITEM: BOX BOUNDS pp pp pp
-5.0000000000000000e+01 5.0000000000000000e+01
-5.0000000000000000e+01 5.0000000000000000e+01
-5.0000000000000000e+01 5.0000000000000000e+01
ITEM: ATOMS id type x y z
1 1 20.2807 -0.806586 -0.130398
2 1 21.0913 -0.208495 -0.213101
3 1 21.4244 -0.340503 0.644712
4 1 22.2982 0.0149589 1.06757
5 1 21.9168 0.967173 1.40049
6 1 21.4378 0.86266 0.404029
7 1 20.5847 0.844195 1.05033
8 1 21.1161 0.312864 1.67545